<?xml version="1.0" encoding="UTF-8"?>

<!-- generated on 2025-05-11 18:57:01 by Eclipse SUMO sumo Version 1.22.0
<sumoConfiguration xmlns:xsi="http://www.w3.org/2001/XMLSchema-instance" xsi:noNamespaceSchemaLocation="http://sumo.dlr.de/xsd/sumoConfiguration.xsd">

    <input>
        <net-file value="/tmp/tmpfifxheyc.net.xml"/>
        <route-files value="gjilaniData/gjilani.rou.xml"/>
    </input>

    <output>
        <emission-output value="gjilaniData/ga_optimized_output_emissions.xml"/>
        <fcd-output value="gjilaniData/ga_optimized_output_fcd.xml"/>
        <queue-output value="gjilaniData/ga_optimized_output_queues.xml"/>
        <summary-output value="gjilaniData/ga_optimized_output_summary.xml"/>
        <tripinfo-output value="gjilaniData/ga_optimized_output_tripinfo.xml"/>
    </output>

    <time>
        <begin value="0"/>
        <end value="800"/>
    </time>

    <processing>
        <no-internal-links value="true"/>
        <max-num-vehicles value="350"/>
    </processing>

    <report>
        <no-warnings value="true"/>
        <duration-log.disable value="true"/>
        <no-step-log value="true"/>
    </report>

    <traci_server>
        <remote-port value="49617"/>
    </traci_server>

    <gui_only>
        <delay value="20"/>
    </gui_only>

</sumoConfiguration>
-->

<tripinfos xmlns:xsi="http://www.w3.org/2001/XMLSchema-instance" xsi:noNamespaceSchemaLocation="http://sumo.dlr.de/xsd/tripinfo_file.xsd">
    <tripinfo id="74" depart="37.00" departLane="-460144170#0_0" departPos="5.10" departSpeed="0.00" departDelay="0.00" arrival="57.00" arrivalLane="-655957423#12_0" arrivalPos="29.86" arrivalSpeed="12.62" duration="20.00" routeLength="206.31" waitingTime="0.00" waitingCount="0" stopTime="0.00" timeLoss="4.43" rerouteNo="0" devices="tripinfo_74 emissions_74 fcd_74" vType="DEFAULT_VEHTYPE" speedFactor="0.97" vaporized="">
        <emissions CO_abs="1098.341931" CO2_abs="67545.304982" HC_abs="6.455234" PMx_abs="1.121200" NOx_abs="26.955619" fuel_abs="21543.965429" electricity_abs="0"/>
    </tripinfo>
    <tripinfo id="64" depart="32.00" departLane="680021718#1_0" departPos="5.10" departSpeed="0.00" departDelay="0.00" arrival="59.00" arrivalLane="680021761_0" arrivalPos="132.01" arrivalSpeed="14.36" duration="27.00" routeLength="323.76" waitingTime="0.00" waitingCount="0" stopTime="0.00" timeLoss="9.37" rerouteNo="0" devices="tripinfo_64 emissions_64 fcd_64" vType="DEFAULT_VEHTYPE" speedFactor="1.12" vaporized="">
        <emissions CO_abs="2097.001378" CO2_abs="126623.647960" HC_abs="12.505448" PMx_abs="2.487821" NOx_abs="52.881572" fuel_abs="40386.954530" electricity_abs="0"/>
    </tripinfo>
    <tripinfo id="35" depart="18.00" departLane="-460144950#7_0" departPos="5.10" departSpeed="0.00" departDelay="0.50" arrival="61.00" arrivalLane="684003220#0_0" arrivalPos="31.32" arrivalSpeed="13.01" duration="43.00" routeLength="552.86" waitingTime="0.00" waitingCount="0" stopTime="0.00" timeLoss="11.45" rerouteNo="0" devices="tripinfo_35 emissions_35 fcd_35" vType="DEFAULT_VEHTYPE" speedFactor="1.17" vaporized="">
        <emissions CO_abs="2745.031665" CO2_abs="193928.595298" HC_abs="16.794860" PMx_abs="3.567511" NOx_abs="79.001440" fuel_abs="61854.017701" electricity_abs="0"/>
    </tripinfo>
    <tripinfo id="32" depart="16.00" departLane="655957423#12_0" departPos="5.10" departSpeed="0.00" departDelay="0.00" arrival="64.00" arrivalLane="655957418_0" arrivalPos="97.80" arrivalSpeed="15.69" duration="48.00" routeLength="579.35" waitingTime="0.00" waitingCount="0" stopTime="0.00" timeLoss="12.40" rerouteNo="0" devices="tripinfo_32 emissions_32 fcd_32" vType="DEFAULT_VEHTYPE" speedFactor="1.18" vaporized="">
        <emissions CO_abs="2617.357578" CO2_abs="182757.174440" HC_abs="15.844263" PMx_abs="3.097516" NOx_abs="71.785108" fuel_abs="58291.229400" electricity_abs="0"/>
    </tripinfo>
    <tripinfo id="13" depart="7.00" departLane="-230142868_0" departPos="5.10" departSpeed="0.00" departDelay="0.50" arrival="71.00" arrivalLane="-230142874#1_0" arrivalPos="0.20" arrivalSpeed="13.54" duration="64.00" routeLength="871.22" waitingTime="0.00" waitingCount="0" stopTime="0.00" timeLoss="12.96" rerouteNo="0" devices="tripinfo_13 emissions_13 fcd_13" vType="DEFAULT_VEHTYPE" speedFactor="1.03" vaporized="">
        <emissions CO_abs="3868.501792" CO2_abs="274517.521797" HC_abs="23.959288" PMx_abs="5.192817" NOx_abs="112.188209" fuel_abs="87557.988133" electricity_abs="0"/>
    </tripinfo>
    <tripinfo id="75" depart="38.00" departLane="883918052#1_0" departPos="0.20" departSpeed="0.00" departDelay="0.50" arrival="86.00" arrivalLane="36507554#3_0" arrivalPos="63.83" arrivalSpeed="12.39" duration="48.00" routeLength="539.39" waitingTime="0.00" waitingCount="0" stopTime="0.00" timeLoss="6.09" rerouteNo="0" devices="tripinfo_75 emissions_75 fcd_75" vType="DEFAULT_VEHTYPE" speedFactor="0.94" vaporized="">
        <emissions CO_abs="1885.180444" CO2_abs="139837.891648" HC_abs="11.837576" PMx_abs="2.281591" NOx_abs="55.665831" fuel_abs="44601.929799" electricity_abs="0"/>
    </tripinfo>
    <tripinfo id="86" depart="43.00" departLane="-685071891_0" departPos="5.10" departSpeed="0.00" departDelay="0.00" arrival="86.00" arrivalLane="656092986#1_0" arrivalPos="47.57" arrivalSpeed="12.75" duration="43.00" routeLength="451.38" waitingTime="0.00" waitingCount="0" stopTime="0.00" timeLoss="8.83" rerouteNo="0" devices="tripinfo_86 emissions_86 fcd_86" vType="DEFAULT_VEHTYPE" speedFactor="0.97" vaporized="">
        <emissions CO_abs="2440.339832" CO2_abs="162371.194404" HC_abs="14.818449" PMx_abs="2.842315" NOx_abs="65.883055" fuel_abs="51788.952853" electricity_abs="0"/>
    </tripinfo>
    <tripinfo id="6" depart="3.00" departLane="-229639781_0" departPos="5.10" departSpeed="0.00" departDelay="0.00" arrival="90.00" arrivalLane="-231350205_0" arrivalPos="153.59" arrivalSpeed="14.13" duration="87.00" routeLength="1050.11" waitingTime="0.00" waitingCount="0" stopTime="0.00" timeLoss="14.16" rerouteNo="0" devices="tripinfo_6 emissions_6 fcd_6" vType="DEFAULT_VEHTYPE" speedFactor="1.05" vaporized="">
        <emissions CO_abs="3510.437748" CO2_abs="287624.029575" HC_abs="22.124054" PMx_abs="4.597561" NOx_abs="112.538032" fuel_abs="91738.860025" electricity_abs="0"/>
    </tripinfo>
    <tripinfo id="23" depart="12.00" departLane="-230142888#3_0" departPos="5.10" departSpeed="0.00" departDelay="0.50" arrival="101.00" arrivalLane="-637507182#0_0" arrivalPos="58.50" arrivalSpeed="13.12" duration="89.00" routeLength="1184.26" waitingTime="0.00" waitingCount="0" stopTime="0.00" timeLoss="14.21" rerouteNo="0" devices="tripinfo_23 emissions_23 fcd_23" vType="DEFAULT_VEHTYPE" speedFactor="1.01" vaporized="">
        <emissions CO_abs="4091.916698" CO2_abs="333401.111333" HC_abs="25.889276" PMx_abs="5.663126" NOx_abs="131.016143" fuel_abs="106339.421633" electricity_abs="0"/>
    </tripinfo>
    <tripinfo id="4" depart="2.00" departLane="-683101709#2_0" departPos="5.10" departSpeed="0.00" departDelay="0.00" arrival="102.00" arrivalLane="-229639806#1_0" arrivalPos="55.83" arrivalSpeed="14.25" duration="100.00" routeLength="1158.83" waitingTime="0.00" waitingCount="0" stopTime="0.00" timeLoss="13.35" rerouteNo="0" devices="tripinfo_4 emissions_4 fcd_4" vType="DEFAULT_VEHTYPE" speedFactor="1.03" vaporized="">
        <emissions CO_abs="3435.482835" CO2_abs="286842.354791" HC_abs="21.899606" PMx_abs="4.368634" NOx_abs="111.293285" fuel_abs="91489.754664" electricity_abs="0"/>
    </tripinfo>
    <tripinfo id="61" depart="31.00" departLane="460297433#1_0" departPos="5.10" departSpeed="0.00" departDelay="0.50" arrival="102.00" arrivalLane="230140938#3_0" arrivalPos="0.20" arrivalSpeed="13.28" duration="71.00" routeLength="843.21" waitingTime="0.00" waitingCount="0" stopTime="0.00" timeLoss="11.16" rerouteNo="0" devices="tripinfo_61 emissions_61 fcd_61" vType="DEFAULT_VEHTYPE" speedFactor="1.02" vaporized="">
        <emissions CO_abs="2971.424776" CO2_abs="234034.031530" HC_abs="18.538099" PMx_abs="3.759407" NOx_abs="92.009578" fuel_abs="74646.144128" electricity_abs="0"/>
    </tripinfo>
    <tripinfo id="30" depart="15.00" departLane="861035207#3_0" departPos="5.10" departSpeed="0.00" departDelay="0.00" arrival="103.00" arrivalLane="32808034#4_0" arrivalPos="71.45" arrivalSpeed="14.52" duration="88.00" routeLength="1310.72" waitingTime="0.00" waitingCount="0" stopTime="0.00" timeLoss="15.68" rerouteNo="0" devices="tripinfo_30 emissions_30 fcd_30" vType="DEFAULT_VEHTYPE" speedFactor="1.13" vaporized="">
        <emissions CO_abs="4862.717895" CO2_abs="378014.699557" HC_abs="30.542997" PMx_abs="6.925278" NOx_abs="149.703407" fuel_abs="120568.757875" electricity_abs="0"/>
    </tripinfo>
    <tripinfo id="62" depart="31.00" departLane="-1049643560_0" departPos="5.10" departSpeed="0.00" departDelay="0.00" arrival="103.00" arrivalLane="-674893646#2_0" arrivalPos="23.24" arrivalSpeed="12.89" duration="72.00" routeLength="798.03" waitingTime="0.00" waitingCount="0" stopTime="0.00" timeLoss="12.17" rerouteNo="0" devices="tripinfo_62 emissions_62 fcd_62" vType="DEFAULT_VEHTYPE" speedFactor="0.97" vaporized="">
        <emissions CO_abs="3335.866641" CO2_abs="240286.221784" HC_abs="20.585622" PMx_abs="4.029174" NOx_abs="96.271782" fuel_abs="76640.294391" electricity_abs="0"/>
    </tripinfo>
    <tripinfo id="98" depart="49.00" departLane="230139330#4_0" departPos="0.20" departSpeed="0.00" departDelay="0.00" arrival="104.00" arrivalLane="-230139342#3_0" arrivalPos="58.71" arrivalSpeed="13.88" duration="55.00" routeLength="657.02" waitingTime="0.00" waitingCount="0" stopTime="0.00" timeLoss="10.20" rerouteNo="0" devices="tripinfo_98 emissions_98 fcd_98" vType="DEFAULT_VEHTYPE" speedFactor="1.06" vaporized="">
        <emissions CO_abs="2531.961960" CO2_abs="187864.304841" HC_abs="15.704240" PMx_abs="3.169183" NOx_abs="74.958629" fuel_abs="59920.053499" electricity_abs="0"/>
    </tripinfo>
    <tripinfo id="1" depart="1.00" departLane="-645734754#0_0" departPos="5.10" departSpeed="0.00" departDelay="0.50" arrival="109.00" arrivalLane="-36983120#0_0" arrivalPos="27.11" arrivalSpeed="12.92" duration="108.00" routeLength="1112.44" waitingTime="8.00" waitingCount="2" stopTime="0.00" timeLoss="30.22" rerouteNo="0" devices="tripinfo_1 emissions_1 fcd_1" vType="DEFAULT_VEHTYPE" speedFactor="0.94" vaporized="">
        <emissions CO_abs="6834.861718" CO2_abs="372511.151940" HC_abs="39.701448" PMx_abs="6.734067" NOx_abs="151.320501" fuel_abs="118814.590504" electricity_abs="0"/>
    </tripinfo>
    <tripinfo id="58" depart="29.00" departLane="-655957423#15_0" departPos="5.10" departSpeed="0.00" departDelay="0.00" arrival="109.00" arrivalLane="32391067#1_0" arrivalPos="0.20" arrivalSpeed="10.55" duration="80.00" routeLength="902.40" waitingTime="0.00" waitingCount="0" stopTime="0.00" timeLoss="8.23" rerouteNo="0" devices="tripinfo_58 emissions_58 fcd_58" vType="DEFAULT_VEHTYPE" speedFactor="1.00" vaporized="">
        <emissions CO_abs="2625.473792" CO2_abs="216134.205064" HC_abs="16.767093" PMx_abs="3.192629" NOx_abs="83.430390" fuel_abs="68937.191895" electricity_abs="0"/>
    </tripinfo>
    <tripinfo id="84" depart="42.00" departLane="-460146678#2_0" departPos="5.10" departSpeed="0.00" departDelay="0.00" arrival="109.00" arrivalLane="-230145724_0" arrivalPos="132.19" arrivalSpeed="13.50" duration="67.00" routeLength="659.01" waitingTime="0.00" waitingCount="0" stopTime="0.00" timeLoss="9.72" rerouteNo="0" devices="tripinfo_84 emissions_84 fcd_84" vType="DEFAULT_VEHTYPE" speedFactor="1.00" vaporized="">
        <emissions CO_abs="2937.011102" CO2_abs="198076.131292" HC_abs="17.842271" PMx_abs="3.110089" NOx_abs="78.433746" fuel_abs="63177.542608" electricity_abs="0"/>
    </tripinfo>
    <tripinfo id="22" depart="11.00" departLane="-230142850_0" departPos="5.10" departSpeed="0.00" departDelay="0.00" arrival="114.00" arrivalLane="-460144532_0" arrivalPos="303.16" arrivalSpeed="13.40" duration="103.00" routeLength="1239.77" waitingTime="0.00" waitingCount="0" stopTime="0.00" timeLoss="13.06" rerouteNo="0" devices="tripinfo_22 emissions_22 fcd_22" vType="DEFAULT_VEHTYPE" speedFactor="1.02" vaporized="">
        <emissions CO_abs="3380.202509" CO2_abs="293405.770362" HC_abs="21.642567" PMx_abs="4.373806" NOx_abs="112.380520" fuel_abs="93583.236259" electricity_abs="0"/>
    </tripinfo>
    <tripinfo id="34" depart="17.00" departLane="-677559364#1_0" departPos="5.10" departSpeed="0.00" departDelay="0.00" arrival="114.00" arrivalLane="-473072344_0" arrivalPos="23.44" arrivalSpeed="13.05" duration="97.00" routeLength="1125.18" waitingTime="0.00" waitingCount="0" stopTime="0.00" timeLoss="21.03" rerouteNo="0" devices="tripinfo_34 emissions_34 fcd_34" vType="DEFAULT_VEHTYPE" speedFactor="1.01" vaporized="">
        <emissions CO_abs="5198.233771" CO2_abs="358733.838303" HC_abs="31.820908" PMx_abs="6.458767" NOx_abs="146.138651" fuel_abs="114419.316105" electricity_abs="0"/>
    </tripinfo>
    <tripinfo id="5" depart="3.00" departLane="-460152060_0" departPos="5.10" departSpeed="0.00" departDelay="0.50" arrival="115.00" arrivalLane="230139335#1_0" arrivalPos="82.74" arrivalSpeed="10.93" duration="112.00" routeLength="987.78" waitingTime="6.00" waitingCount="1" stopTime="0.00" timeLoss="24.29" rerouteNo="0" devices="tripinfo_5 emissions_5 fcd_5" vType="DEFAULT_VEHTYPE" speedFactor="0.83" vaporized="">
        <emissions CO_abs="5846.919748" CO2_abs="303456.733988" HC_abs="33.523144" PMx_abs="5.078506" NOx_abs="122.318939" fuel_abs="96789.778939" electricity_abs="0"/>
    </tripinfo>
    <tripinfo id="67" depart="34.00" departLane="-230142855#3_0" departPos="0.20" departSpeed="0.00" departDelay="0.50" arrival="117.00" arrivalLane="229639795#2_0" arrivalPos="84.82" arrivalSpeed="20.62" duration="83.00" routeLength="1079.50" waitingTime="0.00" waitingCount="0" stopTime="0.00" timeLoss="14.36" rerouteNo="0" devices="tripinfo_67 emissions_67 fcd_67" vType="DEFAULT_VEHTYPE" speedFactor="0.94" vaporized="">
        <emissions CO_abs="4186.532368" CO2_abs="320657.051911" HC_abs="26.397242" PMx_abs="5.677398" NOx_abs="128.556029" fuel_abs="102274.552357" electricity_abs="0"/>
    </tripinfo>
    <tripinfo id="91" depart="46.00" departLane="807779362_0" departPos="0.20" departSpeed="0.00" departDelay="0.50" arrival="120.00" arrivalLane="-230142875#5_0" arrivalPos="2.57" arrivalSpeed="13.51" duration="74.00" routeLength="824.73" waitingTime="0.00" waitingCount="0" stopTime="0.00" timeLoss="13.71" rerouteNo="0" devices="tripinfo_91 emissions_91 fcd_91" vType="DEFAULT_VEHTYPE" speedFactor="1.01" vaporized="">
        <emissions CO_abs="3580.974143" CO2_abs="252751.181613" HC_abs="21.967348" PMx_abs="4.231118" NOx_abs="100.823272" fuel_abs="80616.124529" electricity_abs="0"/>
    </tripinfo>
    <tripinfo id="127" depart="64.00" departLane="896560494#1_0" departPos="0.20" departSpeed="0.00" departDelay="0.50" arrival="120.00" arrivalLane="883918056#1_0" arrivalPos="0.20" arrivalSpeed="13.62" duration="56.00" routeLength="669.37" waitingTime="0.00" waitingCount="0" stopTime="0.00" timeLoss="9.30" rerouteNo="0" devices="tripinfo_127 emissions_127 fcd_127" vType="DEFAULT_VEHTYPE" speedFactor="1.02" vaporized="">
        <emissions CO_abs="2550.620677" CO2_abs="197683.928463" HC_abs="15.945822" PMx_abs="3.329251" NOx_abs="78.534936" fuel_abs="63052.004156" electricity_abs="0"/>
    </tripinfo>
    <tripinfo id="24" depart="12.00" departLane="230145700#1_0" departPos="5.10" departSpeed="0.00" departDelay="0.00" arrival="121.00" arrivalLane="-680602877#1_0" arrivalPos="0.20" arrivalSpeed="10.32" duration="109.00" routeLength="1217.78" waitingTime="0.00" waitingCount="0" stopTime="0.00" timeLoss="15.99" rerouteNo="0" devices="tripinfo_24 emissions_24 fcd_24" vType="DEFAULT_VEHTYPE" speedFactor="0.97" vaporized="">
        <emissions CO_abs="3967.332874" CO2_abs="301596.210328" HC_abs="24.827979" PMx_abs="4.687810" NOx_abs="117.984667" fuel_abs="96195.694319" electricity_abs="0"/>
    </tripinfo>
    <tripinfo id="102" depart="51.00" departLane="-738519266#1_0" departPos="5.10" departSpeed="0.00" departDelay="0.00" arrival="121.00" arrivalLane="-36731755#2_0" arrivalPos="19.78" arrivalSpeed="11.05" duration="70.00" routeLength="717.14" waitingTime="1.00" waitingCount="1" stopTime="0.00" timeLoss="20.94" rerouteNo="0" devices="tripinfo_102 emissions_102 fcd_102" vType="DEFAULT_VEHTYPE" speedFactor="1.10" vaporized="">
        <emissions CO_abs="4061.823775" CO2_abs="245223.398070" HC_abs="24.118133" PMx_abs="4.403845" NOx_abs="100.524241" fuel_abs="78215.086250" electricity_abs="0"/>
    </tripinfo>
    <tripinfo id="143" depart="72.00" departLane="655957423#4_0" departPos="0.20" departSpeed="0.00" departDelay="0.50" arrival="121.00" arrivalLane="-230142866#16_0" arrivalPos="69.99" arrivalSpeed="12.49" duration="49.00" routeLength="566.72" waitingTime="0.00" waitingCount="0" stopTime="0.00" timeLoss="6.46" rerouteNo="0" devices="tripinfo_143 emissions_143 fcd_143" vType="DEFAULT_VEHTYPE" speedFactor="0.95" vaporized="">
        <emissions CO_abs="1911.782799" CO2_abs="148688.199258" HC_abs="12.001136" PMx_abs="2.329408" NOx_abs="58.274460" fuel_abs="47424.828130" electricity_abs="0"/>
    </tripinfo>
    <tripinfo id="215" depart="108.00" departLane="-230145675#2_0" departPos="5.10" departSpeed="0.00" departDelay="0.50" arrival="127.00" arrivalLane="-685272142_0" arrivalPos="21.98" arrivalSpeed="14.99" duration="19.00" routeLength="238.41" waitingTime="0.00" waitingCount="0" stopTime="0.00" timeLoss="4.22" rerouteNo="0" devices="tripinfo_215 emissions_215 fcd_215" vType="DEFAULT_VEHTYPE" speedFactor="1.10" vaporized="">
        <emissions CO_abs="1129.795107" CO2_abs="76139.111892" HC_abs="6.875562" PMx_abs="1.378384" NOx_abs="31.058444" fuel_abs="24284.825953" electricity_abs="0"/>
    </tripinfo>
    <tripinfo id="116" depart="58.00" departLane="230142853#12_0" departPos="5.10" departSpeed="0.00" departDelay="0.00" arrival="128.00" arrivalLane="460144874#11_0" arrivalPos="4.74" arrivalSpeed="9.77" duration="70.00" routeLength="704.79" waitingTime="3.00" waitingCount="1" stopTime="0.00" timeLoss="23.41" rerouteNo="0" devices="tripinfo_116 emissions_116 fcd_116" vType="DEFAULT_VEHTYPE" speedFactor="1.10" vaporized="">
        <emissions CO_abs="4497.744534" CO2_abs="249080.350385" HC_abs="25.970975" PMx_abs="4.581288" NOx_abs="102.263038" fuel_abs="79445.375018" electricity_abs="0"/>
    </tripinfo>
    <tripinfo id="48" depart="24.00" departLane="883918056#1_0" departPos="0.20" departSpeed="0.00" departDelay="0.00" arrival="129.00" arrivalLane="230140938#13_0" arrivalPos="32.91" arrivalSpeed="14.80" duration="105.00" routeLength="1365.15" waitingTime="0.00" waitingCount="0" stopTime="0.00" timeLoss="15.33" rerouteNo="0" devices="tripinfo_48 emissions_48 fcd_48" vType="DEFAULT_VEHTYPE" speedFactor="1.09" vaporized="">
        <emissions CO_abs="3667.379953" CO2_abs="326900.424595" HC_abs="23.709266" PMx_abs="5.116817" NOx_abs="126.160989" fuel_abs="104266.208815" electricity_abs="0"/>
    </tripinfo>
    <tripinfo id="142" depart="71.00" departLane="-806499920#0_0" departPos="0.20" departSpeed="0.00" departDelay="0.00" arrival="130.00" arrivalLane="683100028#0_0" arrivalPos="0.20" arrivalSpeed="13.68" duration="59.00" routeLength="519.42" waitingTime="16.00" waitingCount="1" stopTime="0.00" timeLoss="22.07" rerouteNo="0" devices="tripinfo_142 emissions_142 fcd_142" vType="DEFAULT_VEHTYPE" speedFactor="1.00" vaporized="">
        <emissions CO_abs="4207.722025" CO2_abs="179162.454534" HC_abs="23.129524" PMx_abs="3.070346" NOx_abs="71.662845" fuel_abs="57145.667653" electricity_abs="0"/>
    </tripinfo>
    <tripinfo id="43" depart="22.00" departLane="896560492_0" departPos="0.77" departSpeed="0.00" departDelay="0.50" arrival="131.00" arrivalLane="230139342#5_0" arrivalPos="0.20" arrivalSpeed="12.80" duration="109.00" routeLength="1309.66" waitingTime="0.00" waitingCount="0" stopTime="0.00" timeLoss="12.65" rerouteNo="0" devices="tripinfo_43 emissions_43 fcd_43" vType="DEFAULT_VEHTYPE" speedFactor="0.96" vaporized="">
        <emissions CO_abs="3294.643176" CO2_abs="293536.615885" HC_abs="21.241474" PMx_abs="4.304589" NOx_abs="111.964713" fuel_abs="93625.028039" electricity_abs="0"/>
    </tripinfo>
    <tripinfo id="125" depart="65.00" departLane="-677559366_0" departPos="5.10" departSpeed="0.00" departDelay="2.50" arrival="131.00" arrivalLane="644802476#5_0" arrivalPos="23.64" arrivalSpeed="15.05" duration="66.00" routeLength="850.24" waitingTime="0.00" waitingCount="0" stopTime="0.00" timeLoss="10.03" rerouteNo="0" devices="tripinfo_125 emissions_125 fcd_125" vType="DEFAULT_VEHTYPE" speedFactor="1.10" vaporized="">
        <emissions CO_abs="2972.113933" CO2_abs="242413.613482" HC_abs="18.764210" PMx_abs="4.087099" NOx_abs="96.132313" fuel_abs="77318.591719" electricity_abs="0"/>
    </tripinfo>
    <tripinfo id="36" depart="18.00" departLane="678477958#0_0" departPos="0.20" departSpeed="0.00" departDelay="0.00" arrival="132.00" arrivalLane="-655957423#3_0" arrivalPos="32.36" arrivalSpeed="13.16" duration="114.00" routeLength="1306.72" waitingTime="2.00" waitingCount="2" stopTime="0.00" timeLoss="19.32" rerouteNo="0" devices="tripinfo_36 emissions_36 fcd_36" vType="DEFAULT_VEHTYPE" speedFactor="0.99" vaporized="">
        <emissions CO_abs="4682.085172" CO2_abs="342684.002168" HC_abs="28.758826" PMx_abs="5.408060" NOx_abs="133.690349" fuel_abs="109300.895677" electricity_abs="0"/>
    </tripinfo>
    <tripinfo id="99" depart="50.00" departLane="896560497#2_0" departPos="0.99" departSpeed="0.00" departDelay="0.50" arrival="132.00" arrivalLane="680059237_0" arrivalPos="102.45" arrivalSpeed="13.09" duration="82.00" routeLength="1119.20" waitingTime="0.00" waitingCount="0" stopTime="0.00" timeLoss="9.56" rerouteNo="0" devices="tripinfo_99 emissions_99 fcd_99" vType="DEFAULT_VEHTYPE" speedFactor="1.01" vaporized="">
        <emissions CO_abs="3194.167452" CO2_abs="278362.469626" HC_abs="20.778699" PMx_abs="4.482575" NOx_abs="106.680116" fuel_abs="88784.872272" electricity_abs="0"/>
    </tripinfo>
    <tripinfo id="119" depart="60.00" departLane="230142853#1_0" departPos="5.10" departSpeed="0.00" departDelay="0.50" arrival="137.00" arrivalLane="230660083#0_0" arrivalPos="0.20" arrivalSpeed="11.56" duration="77.00" routeLength="782.83" waitingTime="0.00" waitingCount="0" stopTime="0.00" timeLoss="15.35" rerouteNo="0" devices="tripinfo_119 emissions_119 fcd_119" vType="DEFAULT_VEHTYPE" speedFactor="0.92" vaporized="">
        <emissions CO_abs="3658.759327" CO2_abs="247935.514015" HC_abs="22.307008" PMx_abs="4.129247" NOx_abs="99.623154" fuel_abs="79080.225551" electricity_abs="0"/>
    </tripinfo>
    <tripinfo id="69" depart="35.00" departLane="460151092#1_0" departPos="5.10" departSpeed="0.00" departDelay="0.50" arrival="139.00" arrivalLane="-230145712#2_0" arrivalPos="43.15" arrivalSpeed="11.73" duration="104.00" routeLength="1180.86" waitingTime="0.00" waitingCount="0" stopTime="0.00" timeLoss="10.12" rerouteNo="0" devices="tripinfo_69 emissions_69 fcd_69" vType="DEFAULT_VEHTYPE" speedFactor="0.91" vaporized="">
        <emissions CO_abs="2917.896000" CO2_abs="260582.782511" HC_abs="19.029313" PMx_abs="3.661698" NOx_abs="99.243498" fuel_abs="83114.386962" electricity_abs="0"/>
    </tripinfo>
    <tripinfo id="73" depart="37.00" departLane="230139319#2_0" departPos="5.10" departSpeed="0.00" departDelay="0.50" arrival="139.00" arrivalLane="637512831#1_0" arrivalPos="0.20" arrivalSpeed="13.99" duration="102.00" routeLength="1284.44" waitingTime="0.00" waitingCount="0" stopTime="0.00" timeLoss="20.76" rerouteNo="0" devices="tripinfo_73 emissions_73 fcd_73" vType="DEFAULT_VEHTYPE" speedFactor="1.02" vaporized="">
        <emissions CO_abs="5759.761618" CO2_abs="402430.628433" HC_abs="35.380378" PMx_abs="7.439140" NOx_abs="163.641234" fuel_abs="128356.357165" electricity_abs="0"/>
    </tripinfo>
    <tripinfo id="81" depart="41.00" departLane="-460165834#2_0" departPos="5.10" departSpeed="0.00" departDelay="0.50" arrival="139.00" arrivalLane="683100028#0_0" arrivalPos="0.20" arrivalSpeed="13.78" duration="98.00" routeLength="1049.72" waitingTime="0.00" waitingCount="0" stopTime="0.00" timeLoss="10.25" rerouteNo="0" devices="tripinfo_81 emissions_81 fcd_81" vType="DEFAULT_VEHTYPE" speedFactor="1.01" vaporized="">
        <emissions CO_abs="3173.829989" CO2_abs="247572.653227" HC_abs="20.082244" PMx_abs="3.629753" NOx_abs="95.877647" fuel_abs="78964.784818" electricity_abs="0"/>
    </tripinfo>
    <tripinfo id="237" depart="119.00" departLane="-683100031_0" departPos="5.10" departSpeed="0.00" departDelay="0.50" arrival="139.00" arrivalLane="683100027#0_0" arrivalPos="0.20" arrivalSpeed="12.25" duration="20.00" routeLength="162.73" waitingTime="0.00" waitingCount="0" stopTime="0.00" timeLoss="7.67" rerouteNo="0" devices="tripinfo_237 emissions_237 fcd_237" vType="DEFAULT_VEHTYPE" speedFactor="0.97" vaporized="">
        <emissions CO_abs="1470.023171" CO2_abs="74738.294796" HC_abs="8.417751" PMx_abs="1.323769" NOx_abs="30.865504" fuel_abs="23838.257442" electricity_abs="0"/>
    </tripinfo>
    <tripinfo id="252" depart="126.00" departLane="-229639784#0_0" departPos="5.10" departSpeed="0.00" departDelay="0.00" arrival="140.00" arrivalLane="32818999#7_0" arrivalPos="0.20" arrivalSpeed="13.26" duration="14.00" routeLength="119.90" waitingTime="0.00" waitingCount="0" stopTime="0.00" timeLoss="5.22" rerouteNo="0" devices="tripinfo_252 emissions_252 fcd_252" vType="DEFAULT_VEHTYPE" speedFactor="1.04" vaporized="">
        <emissions CO_abs="1338.618333" CO2_abs="69047.846037" HC_abs="7.738823" PMx_abs="1.388694" NOx_abs="29.614698" fuel_abs="22023.052553" electricity_abs="0"/>
    </tripinfo>
    <tripinfo id="92" depart="46.00" departLane="-681184390#2_0" departPos="5.10" departSpeed="0.00" departDelay="0.00" arrival="142.00" arrivalLane="-677682989_0" arrivalPos="31.96" arrivalSpeed="12.53" duration="96.00" routeLength="1100.88" waitingTime="0.00" waitingCount="0" stopTime="0.00" timeLoss="17.87" rerouteNo="0" devices="tripinfo_92 emissions_92 fcd_92" vType="DEFAULT_VEHTYPE" speedFactor="1.02" vaporized="">
        <emissions CO_abs="4388.005437" CO2_abs="319731.432070" HC_abs="27.190915" PMx_abs="5.429001" NOx_abs="128.140799" fuel_abs="101979.590418" electricity_abs="0"/>
    </tripinfo>
    <tripinfo id="205" depart="105.00" departLane="644802476#13_0" departPos="5.10" departSpeed="0.00" departDelay="2.50" arrival="143.00" arrivalLane="644802476#2_0" arrivalPos="0.20" arrivalSpeed="13.16" duration="38.00" routeLength="430.18" waitingTime="0.00" waitingCount="0" stopTime="0.00" timeLoss="4.69" rerouteNo="0" devices="tripinfo_205 emissions_205 fcd_205" vType="DEFAULT_VEHTYPE" speedFactor="0.95" vaporized="">
        <emissions CO_abs="1333.479521" CO2_abs="106137.478381" HC_abs="8.453729" PMx_abs="1.555412" NOx_abs="40.776350" fuel_abs="33853.188021" electricity_abs="0"/>
    </tripinfo>
    <tripinfo id="2" depart="1.00" departLane="36941265_0" departPos="5.10" departSpeed="0.00" departDelay="0.00" arrival="144.00" arrivalLane="460144874#3_0" arrivalPos="34.88" arrivalSpeed="13.51" duration="143.00" routeLength="1547.61" waitingTime="5.00" waitingCount="1" stopTime="0.00" timeLoss="37.27" rerouteNo="0" devices="tripinfo_2 emissions_2 fcd_2" vType="DEFAULT_VEHTYPE" speedFactor="1.01" vaporized="">
        <emissions CO_abs="8336.514158" CO2_abs="516411.133175" HC_abs="49.876873" PMx_abs="9.511801" NOx_abs="212.440199" fuel_abs="164711.281409" electricity_abs="0"/>
    </tripinfo>
    <tripinfo id="46" depart="23.00" departLane="50450531#2_0" departPos="5.10" departSpeed="0.00" departDelay="0.00" arrival="145.00" arrivalLane="-684881224#3_0" arrivalPos="67.91" arrivalSpeed="13.21" duration="122.00" routeLength="1416.59" waitingTime="0.00" waitingCount="0" stopTime="0.00" timeLoss="16.53" rerouteNo="0" devices="tripinfo_46 emissions_46 fcd_46" vType="DEFAULT_VEHTYPE" speedFactor="1.04" vaporized="">
        <emissions CO_abs="4846.848666" CO2_abs="371760.131259" HC_abs="30.220489" PMx_abs="6.052136" NOx_abs="146.339163" fuel_abs="118574.503762" electricity_abs="0"/>
    </tripinfo>
    <tripinfo id="166" depart="83.00" departLane="460332826#1_0" departPos="5.10" departSpeed="0.00" departDelay="0.00" arrival="145.00" arrivalLane="-230143098#7_0" arrivalPos="60.52" arrivalSpeed="13.63" duration="62.00" routeLength="562.02" waitingTime="0.00" waitingCount="0" stopTime="0.00" timeLoss="11.00" rerouteNo="0" devices="tripinfo_166 emissions_166 fcd_166" vType="DEFAULT_VEHTYPE" speedFactor="0.99" vaporized="">
        <emissions CO_abs="3261.964474" CO2_abs="181978.520338" HC_abs="18.965950" PMx_abs="3.002545" NOx_abs="72.893499" fuel_abs="58043.318647" electricity_abs="0"/>
    </tripinfo>
    <tripinfo id="55" depart="28.00" departLane="677682989_0" departPos="5.10" departSpeed="0.00" departDelay="0.50" arrival="146.00" arrivalLane="-460323599_0" arrivalPos="72.93" arrivalSpeed="5.35" duration="118.00" routeLength="1287.22" waitingTime="6.00" waitingCount="2" stopTime="0.00" timeLoss="34.51" rerouteNo="0" devices="tripinfo_55 emissions_55 fcd_55" vType="DEFAULT_VEHTYPE" speedFactor="1.02" vaporized="">
        <emissions CO_abs="7590.801315" CO2_abs="415056.261206" HC_abs="44.136865" PMx_abs="7.822404" NOx_abs="169.272286" fuel_abs="132384.310447" electricity_abs="0"/>
    </tripinfo>
    <tripinfo id="124" depart="62.00" departLane="230236389#0_0" departPos="5.10" departSpeed="0.00" departDelay="0.00" arrival="146.00" arrivalLane="-645738903#1_0" arrivalPos="204.75" arrivalSpeed="12.64" duration="84.00" routeLength="985.98" waitingTime="0.00" waitingCount="0" stopTime="0.00" timeLoss="8.06" rerouteNo="0" devices="tripinfo_124 emissions_124 fcd_124" vType="DEFAULT_VEHTYPE" speedFactor="0.94" vaporized="">