<?xml version="1.0" encoding="UTF-8"?>

<!-- generated on 2025-05-17 14:00:18 by Eclipse SUMO sumo Version 1.22.0
<sumoConfiguration xmlns:xsi="http://www.w3.org/2001/XMLSchema-instance" xsi:noNamespaceSchemaLocation="http://sumo.dlr.de/xsd/sumoConfiguration.xsd">

    <input>
        <net-file value="gjilaniData/gjilani.net.xml"/>
        <route-files value="gjilaniData/routes-alt.rou.xml"/>
    </input>

    <output>
        <emission-output value="gjilaniData/optimized_output_emissions.xml"/>
        <fcd-output value="gjilaniData/optimized_output_fcd.xml"/>
        <queue-output value="gjilaniData/optimized_output_queues.xml"/>
        <summary-output value="gjilaniData/optimized_output_summary.xml"/>
        <tripinfo-output value="gjilaniData/optimized_output_tripinfo.xml"/>
    </output>

    <time>
        <begin value="0"/>
        <end value="800"/>
    </time>

    <processing>
        <max-num-vehicles value="300"/>
    </processing>

    <traci_server>
        <remote-port value="57749"/>
    </traci_server>

    <gui_only>
        <delay value="20"/>
    </gui_only>

</sumoConfiguration>
-->

<queue-export xmlns:xsi="http://www.w3.org/2001/XMLSchema-instance" xsi:noNamespaceSchemaLocation="http://sumo.dlr.de/xsd/queue_file.xsd">
    <data timestep="0.00">
        <lanes/>
    </data>
    <data timestep="1.00">
        <lanes/>
    </data>
    <data timestep="2.00">
        <lanes/>
    </data>
    <data timestep="3.00">
        <lanes>
            <lane id="-460152060_0" queueing_time="0.00" queueing_length="0.00" queueing_length_experimental="16.58"/>
        </lanes>
    </data>
    <data timestep="4.00">
        <lanes/>
    </data>
    <data timestep="5.00">
        <lanes/>
    </data>
    <data timestep="6.00">
        <lanes>
            <lane id="-680021753#18_0" queueing_time="0.00" queueing_length="0.00" queueing_length_experimental="5.00"/>
        </lanes>
    </data>
    <data timestep="7.00">
        <lanes/>
    </data>
    <data timestep="8.00">
        <lanes/>
    </data>
    <data timestep="9.00">
        <lanes>
            <lane id="645738899_0" queueing_time="0.00" queueing_length="0.00" queueing_length_experimental="17.15"/>
        </lanes>
    </data>
    <data timestep="10.00">
        <lanes>
            <lane id="674893646#9_0" queueing_time="0.00" queueing_length="0.00" queueing_length_experimental="5.00"/>
        </lanes>
    </data>
    <data timestep="11.00">
        <lanes>
            <lane id="-460165150#0_0" queueing_time="0.00" queueing_length="0.00" queueing_length_experimental="5.00"/>
        </lanes>
    </data>
    <data timestep="12.00">
        <lanes>
            <lane id="230145700#1_0" queueing_time="0.00" queueing_length="0.00" queueing_length_experimental="7.75"/>
        </lanes>
    </data>
    <data timestep="13.00">
        <lanes>
            <lane id="-680602877#1_0" queueing_time="0.00" queueing_length="0.00" queueing_length_experimental="5.00"/>
        </lanes>
    </data>
    <data timestep="14.00">
        <lanes>
            <lane id="230145734#10_0" queueing_time="0.00" queueing_length="0.00" queueing_length_experimental="5.00"/>
        </lanes>
    </data>
    <data timestep="15.00">
        <lanes>
            <lane id="-231350156#0_0" queueing_time="0.00" queueing_length="0.00" queueing_length_experimental="5.00"/>
        </lanes>
    </data>
    <data timestep="16.00">
        <lanes/>
    </data>
    <data timestep="17.00">
        <lanes/>
    </data>
    <data timestep="18.00">
        <lanes>
            <lane id="678477958#0_0" queueing_time="0.00" queueing_length="0.00" queueing_length_experimental="5.00"/>
        </lanes>
    </data>
    <data timestep="19.00">
        <lanes/>
    </data>
    <data timestep="20.00">
        <lanes/>
    </data>
    <data timestep="21.00">
        <lanes/>
    </data>
    <data timestep="22.00">
        <lanes>
            <lane id="896560492_0" queueing_time="0.00" queueing_length="0.00" queueing_length_experimental="5.00"/>
        </lanes>
    </data>
    <data timestep="23.00">
        <lanes/>
    </data>
    <data timestep="24.00">
        <lanes>
            <lane id="883918056#1_0" queueing_time="0.00" queueing_length="0.00" queueing_length_experimental="5.00"/>
        </lanes>
    </data>
    <data timestep="25.00">
        <lanes/>
    </data>
    <data timestep="26.00">
        <lanes/>
    </data>
    <data timestep="27.00">
        <lanes/>
    </data>
    <data timestep="28.00">
        <lanes/>
    </data>
    <data timestep="29.00">
        <lanes>
            <lane id="681136744#2_0" queueing_time="0.00" queueing_length="0.00" queueing_length_experimental="5.00"/>
        </lanes>
    </data>
    <data timestep="30.00">
        <lanes>
            <lane id="460148369#2_0" queueing_time="0.00" queueing_length="0.00" queueing_length_experimental="8.42"/>
        </lanes>
    </data>
    <data timestep="31.00">
        <lanes>
            <lane id="-1049643560_0" queueing_time="0.00" queueing_length="0.00" queueing_length_experimental="17.69"/>
        </lanes>
    </data>
    <data timestep="32.00">
        <lanes>
            <lane id="680021718#1_0" queueing_time="0.00" queueing_length="0.00" queueing_length_experimental="7.66"/>
        </lanes>
    </data>
    <data timestep="33.00">
        <lanes>
            <lane id="678477967_0" queueing_time="0.00" queueing_length="0.00" queueing_length_experimental="16.56"/>
        </lanes>
    </data>
    <data timestep="34.00">
        <lanes>
            <lane id="-230142855#3_0" queueing_time="0.00" queueing_length="0.00" queueing_length_experimental="5.00"/>
        </lanes>
    </data>
    <data timestep="35.00">
        <lanes/>
    </data>
    <data timestep="36.00">
        <lanes/>
    </data>
    <data timestep="37.00">
        <lanes/>
    </data>
    <data timestep="38.00">
        <lanes>
            <lane id="883918052#1_0" queueing_time="0.00" queueing_length="0.00" queueing_length_experimental="5.00"/>
        </lanes>
    </data>
    <data timestep="39.00">
        <lanes>
            <lane id="-230145715#0_0" queueing_time="0.00" queueing_length="0.00" queueing_length_experimental="18.14"/>
        </lanes>
    </data>
    <data timestep="40.00">
        <lanes>
            <lane id="-230140938#2_0" queueing_time="0.00" queueing_length="0.00" queueing_length_experimental="11.21"/>
        </lanes>
    </data>
    <data timestep="41.00">
        <lanes>
            <lane id="674893646#17_0" queueing_time="0.00" queueing_length="0.00" queueing_length_experimental="19.49"/>
        </lanes>
    </data>
    <data timestep="42.00">
        <lanes/>
    </data>
    <data timestep="43.00">
        <lanes>
            <lane id="683357408#14_0" queueing_time="0.00" queueing_length="0.00" queueing_length_experimental="15.65"/>
        </lanes>
    </data>
    <data timestep="44.00">
        <lanes/>
    </data>
    <data timestep="45.00">
        <lanes>
            <lane id="-683101715_0" queueing_time="0.00" queueing_length="0.00" queueing_length_experimental="11.10"/>
            <lane id="36507554#4_0" queueing_time="0.00" queueing_length="0.00" queueing_length_experimental="6.58"/>
        </lanes>
    </data>
    <data timestep="46.00">
        <lanes>
            <lane id="807779362_0" queueing_time="0.00" queueing_length="0.00" queueing_length_experimental="5.00"/>
        </lanes>
    </data>
    <data timestep="47.00">
        <lanes>
            <lane id="674893646#9_0" queueing_time="0.00" queueing_length="0.00" queueing_length_experimental="5.00"/>
        </lanes>
    </data>
    <data timestep="48.00">
        <lanes>
            <lane id="-591998476#12_0" queueing_time="0.00" queueing_length="0.00" queueing_length_experimental="8.37"/>
        </lanes>
    </data>
    <data timestep="49.00">
        <lanes>
            <lane id="-683363271_0" queueing_time="0.00" queueing_length="0.00" queueing_length_experimental="10.59"/>
            <lane id="230139330#4_0" queueing_time="0.00" queueing_length="0.00" queueing_length_experimental="5.00"/>
        </lanes>
    </data>
    <data timestep="50.00">
        <lanes>
            <lane id="896560497#2_0" queueing_time="0.00" queueing_length="0.00" queueing_length_experimental="5.00"/>
        </lanes>
    </data>
    <data timestep="51.00">
        <lanes>
            <lane id="-738519266#1_0" queueing_time="0.00" queueing_length="0.00" queueing_length_experimental="9.62"/>
            <lane id="656092985#5_0" queueing_time="0.00" queueing_length="0.00" queueing_length_experimental="5.00"/>
        </lanes>
    </data>
    <data timestep="52.00">
        <lanes>
            <lane id="-680896600#5_0" queueing_time="0.00" queueing_length="0.00" queueing_length_experimental="17.84"/>
        </lanes>
    </data>
    <data timestep="53.00">
        <lanes/>
    </data>
    <data timestep="54.00">
        <lanes>
            <lane id="896560497#3_1" queueing_time="0.00" queueing_length="0.00" queueing_length_experimental="5.20"/>
        </lanes>
    </data>
    <data timestep="55.00">
        <lanes>
            <lane id="230142853#14_0" queueing_time="0.00" queueing_length="0.00" queueing_length_experimental="5.14"/>
            <lane id="896560497#3_1" queueing_time="0.00" queueing_length="0.00" queueing_length_experimental="5.10"/>
        </lanes>
    </data>
    <data timestep="56.00">
        <lanes>
            <lane id="-684003217#8_0" queueing_time="0.00" queueing_length="0.00" queueing_length_experimental="5.00"/>
            <lane id="230142853#14_0" queueing_time="1.00" queueing_length="5.12" queueing_length_experimental="5.12"/>
            <lane id="896560497#3_1" queueing_time="1.00" queueing_length="5.10" queueing_length_experimental="5.10"/>
        </lanes>
    </data>
    <data timestep="57.00">
        <lanes>
            <lane id="1189479351#2_0" queueing_time="0.00" queueing_length="0.00" queueing_length_experimental="15.71"/>
            <lane id="230142853#14_0" queueing_time="2.00" queueing_length="5.10" queueing_length_experimental="5.10"/>
            <lane id="896560497#3_1" queueing_time="2.00" queueing_length="5.10" queueing_length_experimental="5.10"/>
        </lanes>
    </data>
    <data timestep="58.00">
        <lanes>
            <lane id="230142853#12_0" queueing_time="0.00" queueing_length="0.00" queueing_length_experimental="7.80"/>
            <lane id="230142853#14_0" queueing_time="3.00" queueing_length="5.10" queueing_length_experimental="5.10"/>
            <lane id="896560497#3_1" queueing_time="3.00" queueing_length="5.10" queueing_length_experimental="5.10"/>
        </lanes>
    </data>
    <data timestep="59.00">
        <lanes>
            <lane id="230142853#14_0" queueing_time="4.00" queueing_length="5.10" queueing_length_experimental="5.10"/>
        </lanes>
    </data>
    <data timestep="60.00">
        <lanes>
            <lane id="230142853#14_0" queueing_time="5.00" queueing_length="5.10" queueing_length_experimental="5.10"/>
        </lanes>
    </data>
    <data timestep="61.00">
        <lanes>
            <lane id="-230142868_0" queueing_time="0.00" queueing_length="0.00" queueing_length_experimental="5.43"/>
            <lane id="185167880#0_0" queueing_time="0.00" queueing_length="0.00" queueing_length_experimental="18.26"/>
            <lane id="230142853#14_0" queueing_time="6.00" queueing_length="5.10" queueing_length_experimental="5.10"/>
        </lanes>
    </data>
    <data timestep="62.00">
        <lanes>
            <lane id="-230142868_0" queueing_time="0.00" queueing_length="0.00" queueing_length_experimental="5.14"/>
            <lane id="230142853#14_0" queueing_time="7.00" queueing_length="5.10" queueing_length_experimental="5.10"/>
        </lanes>
    </data>
    <data timestep="63.00">
        <lanes>
            <lane id=":2386669076_7_0" queueing_time="0.00" queueing_length="0.00" queueing_length_experimental="5.12"/>
            <lane id="-230142868_0" queueing_time="1.00" queueing_length="5.11" queueing_length_experimental="5.11"/>
            <lane id="230142853#14_0" queueing_time="8.00" queueing_length="5.10" queueing_length_experimental="5.10"/>
        </lanes>
    </data>
    <data timestep="64.00">
        <lanes>
            <lane id="-230140942#0_0" queueing_time="0.00" queueing_length="0.00" queueing_length_experimental="5.00"/>
            <lane id="-230142868_0" queueing_time="2.00" queueing_length="5.10" queueing_length_experimental="5.10"/>
            <lane id="896560494#1_0" queueing_time="0.00" queueing_length="0.00" queueing_length_experimental="5.00"/>
        </lanes>
    </data>
    <data timestep="65.00">
        <lanes>
            <lane id="-230142868_0" queueing_time="3.00" queueing_length="5.10" queueing_length_experimental="5.10"/>
        </lanes>
    </data>
    <data timestep="66.00">
        <lanes>
            <lane id="-680602875#1_0" queueing_time="0.00" queueing_length="0.00" queueing_length_experimental="12.28"/>
            <lane id="639692138#10_0" queueing_time="1.00" queueing_length="5.11" queueing_length_experimental="5.11"/>
            <lane id="646392733#2_0" queueing_time="0.00" queueing_length="0.00" queueing_length_experimental="5.00"/>
        </lanes>
    </data>
    <data timestep="67.00">
        <lanes>
            <lane id="230142875#6_0" queueing_time="0.00" queueing_length="0.00" queueing_length_experimental="5.00"/>
        </lanes>
    </data>
    <data timestep="68.00">
        <lanes/>
    </data>
    <data timestep="69.00">
        <lanes>
            <lane id="-230145675#4_0" queueing_time="0.00" queueing_length="0.00" queueing_length_experimental="5.00"/>
        </lanes>
    </data>
    <data timestep="70.00">
        <lanes>
            <lane id="-644802476#6_0" queueing_time="0.00" queueing_length="0.00" queueing_length_experimental="5.00"/>
            <lane id="32391067#1_0" queueing_time="0.00" queueing_length="0.00" queueing_length_experimental="5.00"/>
        </lanes>
    </data>
    <data timestep="71.00">
        <lanes>
            <lane id=":2390714754_5_0" queueing_time="0.00" queueing_length="0.00" queueing_length_experimental="5.39"/>
            <lane id="-806499920#0_0" queueing_time="0.00" queueing_length="0.00" queueing_length_experimental="5.00"/>
            <lane id="230145696#1_0" queueing_time="0.00" queueing_length="0.00" queueing_length_experimental="16.49"/>
        </lanes>
    </data>
    <data timestep="72.00">
        <lanes>
            <lane id=":2390714754_5_0" queueing_time="0.00" queueing_length="0.00" queueing_length_experimental="5.15"/>
            <lane id="-683101715_0" queueing_time="0.00" queueing_length="0.00" queueing_length_experimental="11.10"/>
            <lane id="655957423#4_0" queueing_time="0.00" queueing_length="0.00" queueing_length_experimental="5.00"/>
        </lanes>
    </data>
    <data timestep="73.00">
        <lanes>
            <lane id=":2390714754_5_0" queueing_time="1.00" queueing_length="5.12" queueing_length_experimental="5.12"/>
        </lanes>
    </data>
    <data timestep="74.00">
        <lanes/>
    </data>
    <data timestep="75.00">
        <lanes>
            <lane id="680896595_0" queueing_time="0.00" queueing_length="0.00" queueing_length_experimental="5.00"/>
        </lanes>
    </data>
    <data timestep="76.00">
        <lanes>
            <lane id="646392733#6_0" queueing_time="0.00" queueing_length="0.00" queueing_length_experimental="5.00"/>
        </lanes>
    </data>
    <data timestep="77.00">
        <lanes>
            <lane id="-674893646#11_0" queueing_time="0.00" queueing_length="0.00" queueing_length_experimental="15.55"/>
            <lane id="591998017#2_0" queueing_time="0.00" queueing_length="0.00" queueing_length_experimental="12.19"/>
        </lanes>
    </data>
    <data timestep="78.00">
        <lanes>
            <lane id="-674893646#11_0" queueing_time="0.00" queueing_length="0.00" queueing_length_experimental="14.20"/>
            <lane id="680602856#0_0" queueing_time="0.00" queueing_length="0.00" queueing_length_experimental="5.00"/>
        </lanes>
    </data>
    <data timestep="79.00">
        <lanes/>
    </data>
    <data timestep="80.00">
        <lanes>
            <lane id="-230580854#3_0" queueing_time="0.00" queueing_length="0.00" queueing_length_experimental="5.00"/>
        </lanes>
    </data>
    <data timestep="81.00">
        <lanes/>
    </data>
    <data timestep="82.00">
        <lanes>
            <lane id="605865388_0" queueing_time="0.00" queueing_length="0.00" queueing_length_experimental="5.00"/>
        </lanes>
    </data>
    <data timestep="83.00">
        <lanes>
            <lane id="460332826#1_0" queueing_time="0.00" queueing_length="0.00" queueing_length_experimental="19.94"/>
        </lanes>
    </data>
    <data timestep="84.00">
        <lanes/>
    </data>
    <data timestep="85.00">
        <lanes>
            <lane id=":8025799200_0_0" queueing_time="1.00" queueing_length="5.28" queueing_length_experimental="5.28"/>
            <lane id="-684881164_0" queueing_time="0.00" queueing_length="0.00" queueing_length_experimental="7.43"/>
            <lane id="35930564#2_1" queueing_time="1.00" queueing_length="6.01" queueing_length_experimental="6.01"/>
            <lane id="686332386#2_0" queueing_time="0.00" queueing_length="0.00" queueing_length_experimental="5.10"/>
        </lanes>
    </data>
    <data timestep="86.00">
        <lanes>
            <lane id=":8025799200_0_0" queueing_time="2.00" queueing_length="5.28" queueing_length_experimental="5.28"/>
            <lane id="35930564#2_1" queueing_time="2.00" queueing_length="6.00" queueing_length_experimental="6.00"/>
            <lane id="36982963_0" queueing_time="1.00" queueing_length="5.13" queueing_length_experimental="5.13"/>
        </lanes>
    </data>
    <data timestep="87.00">
        <lanes>
            <lane id=":8025799200_0_0" queueing_time="3.00" queueing_length="5.28" queueing_length_experimental="5.28"/>
            <lane id="35930564#2_1" queueing_time="3.00" queueing_length="6.00" queueing_length_experimental="6.00"/>
            <lane id="36982963_0" queueing_time="2.00" queueing_length="5.11" queueing_length_experimental="5.11"/>
        </lanes>
    </data>
    <data timestep="88.00">
        <lanes>
            <lane id=":8025799200_0_0" queueing_time="4.00" queueing_length="5.28" queueing_length_experimental="5.28"/>
            <lane id="35930564#2_1" queueing_time="4.00" queueing_length="6.00" queueing_length_experimental="6.00"/>
            <lane id="36982963_0" queueing_time="3.00" queueing_length="5.10" queueing_length_experimental="5.10"/>
            <lane id="680021753#21_0" queueing_time="0.00" queueing_length="0.00" queueing_length_experimental="5.16"/>
            <lane id="806499918#0_0" queueing_time="0.00" queueing_length="0.00" queueing_length_experimental="16.77"/>
        </lanes>
    </data>
    <data timestep="89.00">
        <lanes>
            <lane id=":8025799200_0_0" queueing_time="5.00" queueing_length="5.28" queueing_length_experimental="5.28"/>
            <lane id="35930564#2_1" queueing_time="5.00" queueing_length="6.00" queueing_length_experimental="6.00"/>
            <lane id="36982963_0" queueing_time="4.00" queueing_length="5.10" queueing_length_experimental="5.10"/>
            <lane id="680021753#21_0" queueing_time="1.00" queueing_length="5.13" queueing_length_experimental="5.13"/>
            <lane id="684881227#0_0" queueing_time="0.00" queueing_length="0.00" queueing_length_experimental="5.00"/>
        </lanes>
    </data>
    <data timestep="90.00">
        <lanes>
            <lane id="-230145676#4_0" queueing_time="0.00" queueing_length="0.00" queueing_length_experimental="10.22"/>
            <lane id="36507554#2_0" queueing_time="0.00" queueing_length="0.00" queueing_length_experimental="13.76"/>
            <lane id="36982963_0" queueing_time="5.00" queueing_length="5.10" queueing_length_experimental="5.10"/>
            <lane id="680021753#21_0" queueing_time="2.00" queueing_length="5.10" queueing_length_experimental="5.10"/>
        </lanes>
    </data>
    <data timestep="91.00">
        <lanes>
            <lane id="-230145676#4_0" queueing_time="0.00" queueing_length="0.00" queueing_length_experimental="8.87"/>
            <lane id="230142866#3_0" queueing_time="0.00" queueing_length="0.00" queueing_length_experimental="7.96"/>
            <lane id="36982963_0" queueing_time="6.00" queueing_length="5.10" queueing_length_experimental="5.10"/>
        </lanes>
    </data>
    <data timestep="92.00">
        <lanes>
            <lane id="-637512829#0_0" queueing_time="0.00" queueing_length="0.00" queueing_length_experimental="8.90"/>
            <lane id="36982963_0" queueing_time="7.00" queueing_length="5.10" queueing_length_experimental="5.10"/>
            <lane id="680021753#21_0" queueing_time="0.00" queueing_length="0.00" queueing_length_experimental="12.03"/>
        </lanes>
    </data>
    <data timestep="93.00">
        <lanes>
            <lane id="36982963_0" queueing_time="8.00" queueing_length="5.10" queueing_length_experimental="5.10"/>
        </lanes>
    </data>
    <data timestep="94.00">
        <lanes>
            <lane id="36982963_0" queueing_time="9.00" queueing_length="5.10" queueing_length_experimental="5.10"/>
            <lane id="36983091#0_0" queueing_time="0.00" queueing_length="0.00" queueing_length_experimental="5.00"/>
        </lanes>
    </data>
    <data timestep="95.00">
        <lanes>
            <lane id=":6396211207_8_0" queueing_time="0.00" queueing_length="0.00" queueing_length_experimental="5.81"/>
            <lane id="-637512829#0_0" queueing_time="1.00" queueing_length="5.14" queueing_length_experimental="5.14"/>
            <lane id="-675885366#3_0" queueing_time="0.00" queueing_length="0.00" queueing_length_experimental="5.00"/>
            <lane id="-683105497_0" queueing_time="0.00" queueing_length="0.00" queueing_length_experimental="5.73"/>
            <lane id="36982963_0" queueing_time="10.00" queueing_length="5.10" queueing_length_experimental="5.10"/>
        </lanes>
    </data>
    <data timestep="96.00">
        <lanes>
            <lane id="-637512829#0_0" queueing_time="2.00" queueing_length="5.11" queueing_length_experimental="5.11"/>
            <lane id="-681184390#19_0" queueing_time="0.00" queueing_length="0.00" queueing_length_experimental="5.00"/>
            <lane id="-683105497_0" queueing_time="0.00" queueing_length="0.00" queueing_length_experimental="5.22"/>
            <lane id="36982963_0" queueing_time="11.00" queueing_length="5.10" queueing_length_experimental="5.10"/>
        </lanes>
    </data>
    <data timestep="97.00">
        <lanes>
            <lane id="-637512829#0_0" queueing_time="3.00" queueing_length="5.10" queueing_length_experimental="5.10"/>
            <lane id="-683105497_0" queueing_time="1.00" queueing_length="5.15" queueing_length_experimental="5.15"/>
            <lane id="36982963_0" queueing_time="12.00" queueing_length="5.10" queueing_length_experimental="5.10"/>
            <lane id="683363264#0_0" queueing_time="0.00" queueing_length="0.00" queueing_length_experimental="5.00"/>
        </lanes>
    </data>
    <data timestep="98.00">
        <lanes>
            <lane id="-637512829#0_0" queueing_time="4.00" queueing_length="5.10" queueing_length_experimental="5.10"/>
            <lane id="36982963_0" queueing_time="13.00" queueing_length="5.10" queueing_length_experimental="5.10"/>
        </lanes>
    </data>
    <data timestep="99.00">
        <lanes>
            <lane id="-637512829#0_0" queueing_time="5.00" queueing_length="5.10" queueing_length_experimental="5.10"/>
            <lane id="230145685#1_0" queueing_time="0.00" queueing_length="0.00" queueing_length_experimental="5.18"/>
            <lane id="36982963_0" queueing_time="14.00" queueing_length="5.10" queueing_length_experimental="5.10"/>
        </lanes>
    </data>
    <data timestep="100.00">
        <lanes>
            <lane id="-637512829#0_0" queueing_time="6.00" queueing_length="5.10" queueing_length_experimental="5.10"/>
            <lane id="36982963_0" queueing_time="15.00" queueing_length="5.10" queueing_length_experimental="5.10"/>
        </lanes>
    </data>
    <data timestep="101.00">
        <lanes>
            <lane id="-637512829#0_0" queueing_time="7.00" queueing_length="5.10" queueing_length_experimental="5.10"/>
            <lane id="36982963_0" queueing_time="16.00" queueing_length="5.10" queueing_length_experimental="5.10"/>
        </lanes>
    </data>
    <data timestep="102.00">
        <lanes>
            <lane id="-637512829#0_0" queueing_time="8.00" queueing_length="5.10" queueing_length_experimental="5.10"/>
            <lane id="230145691#8_0" queueing_time="0.00" queueing_length="0.00" queueing_length_experimental="12.08"/>
            <lane id="36982963_0" queueing_time="17.00" queueing_length="5.10" queueing_length_experimental="5.10"/>
        </lanes>
    </data>
    <data timestep="103.00">
        <lanes>
            <lane id="-637512829#0_0" queueing_time="9.00" queueing_length="5.10" queueing_length_experimental="5.10"/>
            <lane id="230236390_0" queueing_time="0.00" queueing_length="0.00" queueing_length_experimental="19.03"/>
            <lane id="36982963_0" queueing_time="18.00" queueing_length="5.10" queueing_length_experimental="5.10"/>
        </lanes>
    </data>
    <data timestep="104.00">
        <lanes>
            <lane id="-459216129#8_0" queueing_time="0.00" queueing_length="0.00" queueing_length_experimental="12.65"/>
            <lane id="-637512829#0_0" queueing_time="10.00" queueing_length="5.10" queueing_length_experimental="5.10"/>
            <lane id="36982963_0" queueing_time="19.00" queueing_length="5.10" queueing_length_experimental="5.10"/>
        </lanes>
    </data>
    <data timestep="105.00">
        <lanes>
            <lane id="-637512829#0_0" queueing_time="11.00" queueing_length="5.10" queueing_length_experimental="5.10"/>
            <lane id="-683098871#3_0" queueing_time="0.00" queueing_length="0.00" queueing_length_experimental="16.25"/>
            <lane id="36982963_0" queueing_time="20.00" queueing_length="5.10" queueing_length_experimental="5.10"/>
        </lanes>
    </data>
    <data timestep="106.00">
        <lanes>
            <lane id="-637512829#0_0" queueing_time="12.00" queueing_length="5.10" queueing_length_experimental="5.10"/>
            <lane id="-861035207#19_0" queueing_time="0.00" queueing_length="0.00" queueing_length_experimental="5.00"/>
            <lane id="230145705#6_0" queueing_time="0.00" queueing_length="0.00" queueing_length_experimental="6.20"/>
            <lane id="36982963_0" queueing_time="21.00" queueing_length="5.10" queueing_length_experimental="5.10"/>
        </lanes>
    </data>
    <data timestep="107.00">
        <lanes>
            <lane id="-637512829#0_0" queueing_time="13.00" queueing_length="5.10" queueing_length_experimental="5.10"/>
            <lane id="-680602860#0_0" queueing_time="0.00" queueing_length="0.00" queueing_length_experimental="5.17"/>
            <lane id="230145705#6_0" queueing_time="0.00" queueing_length="0.00" queueing_length_experimental="5.39"/>
            <lane id="36982963_0" queueing_time="22.00" queueing_length="5.10" queueing_length_experimental="5.10"/>
        </lanes>
    </data>
    <data timestep="108.00">
        <lanes>
            <lane id="-230145675#2_0" queueing_time="0.00" queueing_length="0.00" queueing_length_experimental="8.81"/>
            <lane id="-32818999#2_0" queueing_time="0.00" queueing_length="0.00" queueing_length_experimental="11.84"/>
            <lane id="-637512829#0_0" queueing_time="14.00" queueing_length="5.10" queueing_length_experimental="5.10"/>
            <lane id="-680602860#0_0" queueing_time="1.00" queueing_length="5.13" queueing_length_experimental="5.13"/>
            <lane id="230145705#6_0" queueing_time="0.00" queueing_length="0.00" queueing_length_experimental="5.17"/>
        </lanes>
    </data>
    <data timestep="109.00">
        <lanes>
            <lane id="-637512829#0_0" queueing_time="15.00" queueing_length="5.10" queueing_length_experimental="5.10"/>
            <lane id="-680602860#0_0" queueing_time="2.00" queueing_length="5.11" queueing_length_experimental="5.11"/>
            <lane id="1374163052#1_0" queueing_time="0.00" queueing_length="0.00" queueing_length_experimental="5.00"/>
        </lanes>
    </data>
    <data timestep="110.00">
        <lanes>
            <lane id="-637512829#0_0" queueing_time="16.00" queueing_length="5.10" queueing_length_experimental="5.10"/>
            <lane id="-680602860#0_0" queueing_time="3.00" queueing_length="5.10" queueing_length_experimental="5.10"/>
            <lane id="230229176#0_0" queueing_time="0.00" queueing_length="0.00" queueing_length_experimental="5.00"/>
        </lanes>
    </data>
    <data timestep="111.00">
        <lanes>
            <lane id="-637512829#0_0" queueing_time="17.00" queueing_length="5.10" queueing_length_experimental="5.10"/>
            <lane id="-680602860#0_0" queueing_time="4.00" queueing_length="5.10" queueing_length_experimental="5.10"/>
            <lane id="230142853#13_0" queueing_time="0.00" queueing_length="0.00" queueing_length_experimental="6.87"/>
        </lanes>
    </data>
    <data timestep="112.00">
        <lanes>
            <lane id="-680602860#0_0" queueing_time="5.00" queueing_length="5.10" queueing_length_experimental="5.10"/>
            <lane id="230227381_0" queueing_time="0.00" queueing_length="0.00" queueing_length_experimental="5.42"/>
        </lanes>
    </data>
    <data timestep="113.00">
        <lanes>
            <lane id="-680602860#0_0" queueing_time="6.00" queueing_length="5.10" queueing_length_experimental="5.10"/>