<?xml version="1.0" encoding="UTF-8"?>

<!-- generated on 2025-05-17 14:00:18 by Eclipse SUMO sumo Version 1.22.0
<sumoConfiguration xmlns:xsi="http://www.w3.org/2001/XMLSchema-instance" xsi:noNamespaceSchemaLocation="http://sumo.dlr.de/xsd/sumoConfiguration.xsd">

    <input>
        <net-file value="gjilaniData/gjilani.net.xml"/>
        <route-files value="gjilaniData/routes-alt.rou.xml"/>
    </input>

    <output>
        <emission-output value="gjilaniData/optimized_output_emissions.xml"/>
        <fcd-output value="gjilaniData/optimized_output_fcd.xml"/>
        <queue-output value="gjilaniData/optimized_output_queues.xml"/>
        <summary-output value="gjilaniData/optimized_output_summary.xml"/>
        <tripinfo-output value="gjilaniData/optimized_output_tripinfo.xml"/>
    </output>

    <time>
        <begin value="0"/>
        <end value="800"/>
    </time>

    <processing>
        <max-num-vehicles value="300"/>
    </processing>

    <traci_server>
        <remote-port value="57749"/>
    </traci_server>

    <gui_only>
        <delay value="20"/>
    </gui_only>

</sumoConfiguration>
-->

<tripinfos xmlns:xsi="http://www.w3.org/2001/XMLSchema-instance" xsi:noNamespaceSchemaLocation="http://sumo.dlr.de/xsd/tripinfo_file.xsd">
    <tripinfo id="64" depart="32.00" departLane="680021718#1_0" departPos="5.10" departSpeed="0.00" departDelay="0.00" arrival="71.00" arrivalLane="680021761_0" arrivalPos="132.01" arrivalSpeed="14.42" duration="39.00" routeLength="507.06" waitingTime="0.00" waitingCount="0" stopTime="0.00" timeLoss="11.39" rerouteNo="0" devices="tripinfo_64 emissions_64 fcd_64" vType="DEFAULT_VEHTYPE" speedFactor="1.12" vaporized="">
        <emissions CO_abs="3329.136104" CO2_abs="208510.778925" HC_abs="19.991319" PMx_abs="4.152589" NOx_abs="86.650243" fuel_abs="66505.001116" electricity_abs="0"/>
    </tripinfo>
    <tripinfo id="74" depart="37.00" departLane="-460144170#0_0" departPos="5.10" departSpeed="0.00" departDelay="0.00" arrival="73.00" arrivalLane="-655957423#12_0" arrivalPos="29.86" arrivalSpeed="11.04" duration="36.00" routeLength="362.51" waitingTime="0.00" waitingCount="0" stopTime="0.00" timeLoss="7.58" rerouteNo="0" devices="tripinfo_74 emissions_74 fcd_74" vType="DEFAULT_VEHTYPE" speedFactor="0.97" vaporized="">
        <emissions CO_abs="1793.559186" CO2_abs="111271.184737" HC_abs="10.668052" PMx_abs="1.847127" NOx_abs="44.607709" fuel_abs="35490.578156" electricity_abs="0"/>
    </tripinfo>
    <tripinfo id="35" depart="18.00" departLane="-460144950#7_0" departPos="5.10" departSpeed="0.00" departDelay="0.50" arrival="76.00" arrivalLane="684003220#0_0" arrivalPos="31.32" arrivalSpeed="12.05" duration="58.00" routeLength="787.31" waitingTime="0.00" waitingCount="0" stopTime="0.00" timeLoss="13.14" rerouteNo="0" devices="tripinfo_35 emissions_35 fcd_35" vType="DEFAULT_VEHTYPE" speedFactor="1.17" vaporized="">
        <emissions CO_abs="3453.442419" CO2_abs="254764.935045" HC_abs="21.309767" PMx_abs="4.628182" NOx_abs="102.381792" fuel_abs="81257.930065" electricity_abs="0"/>
    </tripinfo>
    <tripinfo id="32" depart="16.00" departLane="655957423#12_0" departPos="5.10" departSpeed="0.00" departDelay="0.00" arrival="81.00" arrivalLane="655957418_0" arrivalPos="97.80" arrivalSpeed="15.37" duration="65.00" routeLength="746.33" waitingTime="3.00" waitingCount="1" stopTime="0.00" timeLoss="17.12" rerouteNo="0" devices="tripinfo_32 emissions_32 fcd_32" vType="DEFAULT_VEHTYPE" speedFactor="1.18" vaporized="">
        <emissions CO_abs="4075.559086" CO2_abs="249472.723504" HC_abs="24.346109" PMx_abs="4.633497" NOx_abs="101.779610" fuel_abs="79570.312061" electricity_abs="0"/>
    </tripinfo>
    <tripinfo id="13" depart="7.00" departLane="-230142868_0" departPos="5.10" departSpeed="0.00" departDelay="0.50" arrival="97.00" arrivalLane="-230142874#1_0" arrivalPos="0.20" arrivalSpeed="5.11" duration="90.00" routeLength="1095.95" waitingTime="0.00" waitingCount="0" stopTime="0.00" timeLoss="22.58" rerouteNo="0" devices="tripinfo_13 emissions_13 fcd_13" vType="DEFAULT_VEHTYPE" speedFactor="1.03" vaporized="">
        <emissions CO_abs="5219.721277" CO2_abs="358168.255118" HC_abs="32.013326" PMx_abs="6.638089" NOx_abs="146.024555" fuel_abs="114238.816150" electricity_abs="0"/>
    </tripinfo>
    <tripinfo id="86" depart="43.00" departLane="-685071891_0" departPos="5.10" departSpeed="0.00" departDelay="0.00" arrival="104.00" arrivalLane="656092986#1_0" arrivalPos="47.57" arrivalSpeed="12.35" duration="61.00" routeLength="619.31" waitingTime="0.00" waitingCount="0" stopTime="0.00" timeLoss="12.88" rerouteNo="0" devices="tripinfo_86 emissions_86 fcd_86" vType="DEFAULT_VEHTYPE" speedFactor="0.97" vaporized="">
        <emissions CO_abs="2949.019280" CO2_abs="193741.276480" HC_abs="17.713110" PMx_abs="3.229351" NOx_abs="77.503123" fuel_abs="61794.772430" electricity_abs="0"/>
    </tripinfo>
    <tripinfo id="75" depart="38.00" departLane="883918052#1_0" departPos="0.20" departSpeed="0.00" departDelay="0.50" arrival="109.00" arrivalLane="36507554#3_0" arrivalPos="63.83" arrivalSpeed="11.76" duration="71.00" routeLength="761.22" waitingTime="0.00" waitingCount="0" stopTime="0.00" timeLoss="10.69" rerouteNo="0" devices="tripinfo_75 emissions_75 fcd_75" vType="DEFAULT_VEHTYPE" speedFactor="0.94" vaporized="">
        <emissions CO_abs="2780.230971" CO2_abs="202649.365243" HC_abs="17.161200" PMx_abs="3.139070" NOx_abs="79.418786" fuel_abs="64636.145420" electricity_abs="0"/>
    </tripinfo>
    <tripinfo id="98" depart="49.00" departLane="230139330#4_0" departPos="0.20" departSpeed="0.00" departDelay="0.00" arrival="113.00" arrivalLane="-230139342#3_0" arrivalPos="58.71" arrivalSpeed="14.20" duration="64.00" routeLength="756.35" waitingTime="0.00" waitingCount="0" stopTime="0.00" timeLoss="10.28" rerouteNo="0" devices="tripinfo_98 emissions_98 fcd_98" vType="DEFAULT_VEHTYPE" speedFactor="1.06" vaporized="">
        <emissions CO_abs="2814.366824" CO2_abs="215403.195579" HC_abs="17.520186" PMx_abs="3.526997" NOx_abs="85.002062" fuel_abs="68703.754467" electricity_abs="0"/>
    </tripinfo>
    <tripinfo id="6" depart="3.00" departLane="-229639781_0" departPos="5.10" departSpeed="0.00" departDelay="0.00" arrival="115.00" arrivalLane="-231350205_0" arrivalPos="153.59" arrivalSpeed="14.14" duration="112.00" routeLength="1194.32" waitingTime="0.00" waitingCount="0" stopTime="0.00" timeLoss="25.39" rerouteNo="0" devices="tripinfo_6 emissions_6 fcd_6" vType="DEFAULT_VEHTYPE" speedFactor="1.05" vaporized="">
        <emissions CO_abs="6130.844390" CO2_abs="399373.649402" HC_abs="36.988945" PMx_abs="7.020630" NOx_abs="162.542394" fuel_abs="127381.871481" electricity_abs="0"/>
    </tripinfo>
    <tripinfo id="84" depart="42.00" departLane="-460146678#2_0" departPos="5.10" departSpeed="0.00" departDelay="0.00" arrival="124.00" arrivalLane="-230145724_0" arrivalPos="132.19" arrivalSpeed="13.57" duration="82.00" routeLength="757.82" waitingTime="0.00" waitingCount="0" stopTime="0.00" timeLoss="14.16" rerouteNo="0" devices="tripinfo_84 emissions_84 fcd_84" vType="DEFAULT_VEHTYPE" speedFactor="1.00" vaporized="">
        <emissions CO_abs="3913.580780" CO2_abs="245058.993181" HC_abs="23.487057" PMx_abs="3.953639" NOx_abs="98.073690" fuel_abs="78163.063318" electricity_abs="0"/>
    </tripinfo>
    <tripinfo id="61" depart="31.00" departLane="460297433#1_0" departPos="5.10" departSpeed="0.00" departDelay="0.50" arrival="125.00" arrivalLane="230140938#3_0" arrivalPos="0.20" arrivalSpeed="2.64" duration="94.00" routeLength="1069.61" waitingTime="0.00" waitingCount="0" stopTime="0.00" timeLoss="16.21" rerouteNo="0" devices="tripinfo_61 emissions_61 fcd_61" vType="DEFAULT_VEHTYPE" speedFactor="1.02" vaporized="">
        <emissions CO_abs="3860.966190" CO2_abs="292898.969894" HC_abs="24.040411" PMx_abs="4.730102" NOx_abs="115.046824" fuel_abs="93421.483359" electricity_abs="0"/>
    </tripinfo>
    <tripinfo id="142" depart="71.00" departLane="-806499920#0_0" departPos="0.20" departSpeed="0.00" departDelay="0.00" arrival="129.00" arrivalLane="683100028#0_0" arrivalPos="0.20" arrivalSpeed="5.37" duration="58.00" routeLength="655.23" waitingTime="0.00" waitingCount="0" stopTime="0.00" timeLoss="10.50" rerouteNo="0" devices="tripinfo_142 emissions_142 fcd_142" vType="DEFAULT_VEHTYPE" speedFactor="1.00" vaporized="">
        <emissions CO_abs="2097.939296" CO2_abs="166434.293763" HC_abs="13.086589" PMx_abs="2.487696" NOx_abs="64.272466" fuel_abs="53085.131513" electricity_abs="0"/>
    </tripinfo>
    <tripinfo id="30" depart="15.00" departLane="861035207#3_0" departPos="5.10" departSpeed="0.00" departDelay="0.00" arrival="135.00" arrivalLane="32808034#4_0" arrivalPos="71.45" arrivalSpeed="14.62" duration="120.00" routeLength="1599.78" waitingTime="0.00" waitingCount="0" stopTime="0.00" timeLoss="26.70" rerouteNo="0" devices="tripinfo_30 emissions_30 fcd_30" vType="DEFAULT_VEHTYPE" speedFactor="1.13" vaporized="">
        <emissions CO_abs="6920.073682" CO2_abs="488274.456108" HC_abs="42.848589" PMx_abs="9.232181" NOx_abs="199.289770" fuel_abs="155736.283128" electricity_abs="0"/>
    </tripinfo>
    <tripinfo id="5" depart="3.00" departLane="-460152060_0" departPos="5.10" departSpeed="0.00" departDelay="0.50" arrival="138.00" arrivalLane="230139335#1_0" arrivalPos="82.74" arrivalSpeed="11.17" duration="135.00" routeLength="1317.67" waitingTime="0.00" waitingCount="0" stopTime="0.00" timeLoss="17.81" rerouteNo="0" devices="tripinfo_5 emissions_5 fcd_5" vType="DEFAULT_VEHTYPE" speedFactor="0.83" vaporized="">
        <emissions CO_abs="5706.174541" CO2_abs="367728.005721" HC_abs="34.359852" PMx_abs="5.746364" NOx_abs="144.954354" fuel_abs="117289.217651" electricity_abs="0"/>
    </tripinfo>
    <tripinfo id="62" depart="31.00" departLane="-1049643560_0" departPos="5.10" departSpeed="0.00" departDelay="0.00" arrival="138.00" arrivalLane="-674893646#2_0" arrivalPos="23.24" arrivalSpeed="13.31" duration="107.00" routeLength="1161.79" waitingTime="0.00" waitingCount="0" stopTime="0.00" timeLoss="18.64" rerouteNo="0" devices="tripinfo_62 emissions_62 fcd_62" vType="DEFAULT_VEHTYPE" speedFactor="0.97" vaporized="">
        <emissions CO_abs="4575.488984" CO2_abs="330614.491303" HC_abs="28.155862" PMx_abs="5.381318" NOx_abs="131.202994" fuel_abs="105451.060247" electricity_abs="0"/>
    </tripinfo>
    <tripinfo id="58" depart="29.00" departLane="-655957423#15_0" departPos="5.10" departSpeed="0.00" departDelay="0.00" arrival="141.00" arrivalLane="32391067#1_0" arrivalPos="0.20" arrivalSpeed="11.03" duration="112.00" routeLength="1242.53" waitingTime="0.00" waitingCount="0" stopTime="0.00" timeLoss="13.98" rerouteNo="0" devices="tripinfo_58 emissions_58 fcd_58" vType="DEFAULT_VEHTYPE" speedFactor="1.00" vaporized="">
        <emissions CO_abs="3781.437235" CO2_abs="306410.053363" HC_abs="23.929378" PMx_abs="4.468646" NOx_abs="117.853490" fuel_abs="97731.257788" electricity_abs="0"/>
    </tripinfo>
    <tripinfo id="91" depart="46.00" departLane="807779362_0" departPos="0.20" departSpeed="0.00" departDelay="0.50" arrival="142.00" arrivalLane="-230142875#5_0" arrivalPos="2.57" arrivalSpeed="13.50" duration="96.00" routeLength="1059.30" waitingTime="0.00" waitingCount="0" stopTime="0.00" timeLoss="14.91" rerouteNo="0" devices="tripinfo_91 emissions_91 fcd_91" vType="DEFAULT_VEHTYPE" speedFactor="1.01" vaporized="">
        <emissions CO_abs="4142.648980" CO2_abs="302570.651529" HC_abs="25.617479" PMx_abs="5.039358" NOx_abs="120.713500" fuel_abs="96506.181081" electricity_abs="0"/>
    </tripinfo>
    <tripinfo id="215" depart="108.00" departLane="-230145675#2_0" departPos="5.10" departSpeed="0.00" departDelay="0.50" arrival="142.00" arrivalLane="-685272142_0" arrivalPos="21.98" arrivalSpeed="14.37" duration="34.00" routeLength="419.10" waitingTime="0.00" waitingCount="0" stopTime="0.00" timeLoss="6.96" rerouteNo="0" devices="tripinfo_215 emissions_215 fcd_215" vType="DEFAULT_VEHTYPE" speedFactor="1.10" vaporized="">
        <emissions CO_abs="1471.570768" CO2_abs="117059.820049" HC_abs="9.128964" PMx_abs="1.860927" NOx_abs="45.290081" fuel_abs="37336.756904" electricity_abs="0"/>
    </tripinfo>
    <tripinfo id="4" depart="2.00" departLane="-683101709#2_0" departPos="5.10" departSpeed="0.00" departDelay="0.00" arrival="144.00" arrivalLane="-229639806#1_0" arrivalPos="55.83" arrivalSpeed="13.45" duration="142.00" routeLength="1607.63" waitingTime="0.00" waitingCount="0" stopTime="0.00" timeLoss="21.14" rerouteNo="0" devices="tripinfo_4 emissions_4 fcd_4" vType="DEFAULT_VEHTYPE" speedFactor="1.03" vaporized="">
        <emissions CO_abs="5534.572552" CO2_abs="426337.709379" HC_abs="34.726296" PMx_abs="6.885860" NOx_abs="168.571010" fuel_abs="135982.276803" electricity_abs="0"/>
    </tripinfo>
    <tripinfo id="34" depart="17.00" departLane="-677559364#1_0" departPos="5.10" departSpeed="0.00" departDelay="0.00" arrival="144.00" arrivalLane="-473072344_0" arrivalPos="23.44" arrivalSpeed="13.59" duration="127.00" routeLength="1515.71" waitingTime="0.00" waitingCount="0" stopTime="0.00" timeLoss="22.31" rerouteNo="0" devices="tripinfo_34 emissions_34 fcd_34" vType="DEFAULT_VEHTYPE" speedFactor="1.01" vaporized="">
        <emissions CO_abs="6186.708585" CO2_abs="449561.066746" HC_abs="38.306892" PMx_abs="7.870144" NOx_abs="181.007304" fuel_abs="143389.023677" electricity_abs="0"/>
    </tripinfo>
    <tripinfo id="252" depart="126.00" departLane="-229639784#0_0" departPos="5.10" departSpeed="0.00" departDelay="0.00" arrival="144.00" arrivalLane="32818999#7_0" arrivalPos="0.20" arrivalSpeed="13.43" duration="18.00" routeLength="158.79" waitingTime="0.00" waitingCount="0" stopTime="0.00" timeLoss="5.55" rerouteNo="0" devices="tripinfo_252 emissions_252 fcd_252" vType="DEFAULT_VEHTYPE" speedFactor="1.04" vaporized="">
        <emissions CO_abs="1515.624653" CO2_abs="81765.160217" HC_abs="8.841312" PMx_abs="1.592587" NOx_abs="34.622513" fuel_abs="26079.307772" electricity_abs="0"/>
    </tripinfo>
    <tripinfo id="237" depart="119.00" departLane="-683100031_0" departPos="5.10" departSpeed="0.00" departDelay="0.50" arrival="145.00" arrivalLane="683100027#0_0" arrivalPos="0.20" arrivalSpeed="5.43" duration="26.00" routeLength="192.61" waitingTime="0.00" waitingCount="0" stopTime="0.00" timeLoss="9.48" rerouteNo="0" devices="tripinfo_237 emissions_237 fcd_237" vType="DEFAULT_VEHTYPE" speedFactor="0.97" vaporized="">
        <emissions CO_abs="1782.635215" CO2_abs="84690.240219" HC_abs="10.116933" PMx_abs="1.650186" NOx_abs="36.078288" fuel_abs="27012.391041" electricity_abs="0"/>
    </tripinfo>
    <tripinfo id="23" depart="12.00" departLane="-230142888#3_0" departPos="5.10" departSpeed="0.00" departDelay="0.50" arrival="146.00" arrivalLane="-637507182#0_0" arrivalPos="58.50" arrivalSpeed="13.60" duration="134.00" routeLength="1614.17" waitingTime="0.00" waitingCount="0" stopTime="0.00" timeLoss="26.53" rerouteNo="0" devices="tripinfo_23 emissions_23 fcd_23" vType="DEFAULT_VEHTYPE" speedFactor="1.01" vaporized="">
        <emissions CO_abs="6779.845780" CO2_abs="480576.517473" HC_abs="41.383410" PMx_abs="8.427700" NOx_abs="192.131096" fuel_abs="153281.622145" electricity_abs="0"/>
    </tripinfo>
    <tripinfo id="24" depart="12.00" departLane="230145700#1_0" departPos="5.10" departSpeed="0.00" departDelay="0.00" arrival="147.00" arrivalLane="-680602877#1_0" arrivalPos="0.20" arrivalSpeed="6.82" duration="135.00" routeLength="1517.55" waitingTime="0.00" waitingCount="0" stopTime="0.00" timeLoss="17.09" rerouteNo="0" devices="tripinfo_24 emissions_24 fcd_24" vType="DEFAULT_VEHTYPE" speedFactor="0.97" vaporized="">
        <emissions CO_abs="4511.872073" CO2_abs="372535.416426" HC_abs="28.821856" PMx_abs="5.551083" NOx_abs="143.859793" fuel_abs="118822.172013" electricity_abs="0"/>
    </tripinfo>
    <tripinfo id="22" depart="11.00" departLane="-230142850_0" departPos="5.10" departSpeed="0.00" departDelay="0.00" arrival="149.00" arrivalLane="-460144532_0" arrivalPos="303.16" arrivalSpeed="13.91" duration="138.00" routeLength="1519.46" waitingTime="0.00" waitingCount="0" stopTime="0.00" timeLoss="23.26" rerouteNo="0" devices="tripinfo_22 emissions_22 fcd_22" vType="DEFAULT_VEHTYPE" speedFactor="1.02" vaporized="">
        <emissions CO_abs="5757.248023" CO2_abs="423621.904365" HC_abs="35.625860" PMx_abs="7.060298" NOx_abs="169.135088" fuel_abs="135115.946755" electricity_abs="0"/>
    </tripinfo>
    <tripinfo id="102" depart="51.00" departLane="-738519266#1_0" departPos="5.10" departSpeed="0.00" departDelay="0.00" arrival="154.00" arrivalLane="-36731755#2_0" arrivalPos="19.78" arrivalSpeed="8.88" duration="103.00" routeLength="1199.60" waitingTime="0.00" waitingCount="0" stopTime="0.00" timeLoss="19.64" rerouteNo="0" devices="tripinfo_102 emissions_102 fcd_102" vType="DEFAULT_VEHTYPE" speedFactor="1.10" vaporized="">
        <emissions CO_abs="4548.620421" CO2_abs="334094.291130" HC_abs="27.990637" PMx_abs="5.628062" NOx_abs="132.839582" fuel_abs="106560.699313" electricity_abs="0"/>
    </tripinfo>
    <tripinfo id="143" depart="72.00" departLane="655957423#4_0" departPos="0.20" departSpeed="0.00" departDelay="0.50" arrival="154.00" arrivalLane="-230142866#16_0" arrivalPos="69.99" arrivalSpeed="13.19" duration="82.00" routeLength="960.96" waitingTime="0.00" waitingCount="0" stopTime="0.00" timeLoss="9.69" rerouteNo="0" devices="tripinfo_143 emissions_143 fcd_143" vType="DEFAULT_VEHTYPE" speedFactor="0.95" vaporized="">
        <emissions CO_abs="2299.554997" CO2_abs="213471.462303" HC_abs="15.117632" PMx_abs="2.965647" NOx_abs="80.596130" fuel_abs="68087.963099" electricity_abs="0"/>
    </tripinfo>
    <tripinfo id="127" depart="64.00" departLane="896560494#1_0" departPos="0.20" departSpeed="0.00" departDelay="0.50" arrival="156.00" arrivalLane="883918056#1_0" arrivalPos="0.20" arrivalSpeed="13.34" duration="92.00" routeLength="1095.60" waitingTime="0.00" waitingCount="0" stopTime="0.00" timeLoss="16.29" rerouteNo="0" devices="tripinfo_127 emissions_127 fcd_127" vType="DEFAULT_VEHTYPE" speedFactor="1.02" vaporized="">
        <emissions CO_abs="3295.549284" CO2_abs="278763.996980" HC_abs="21.242379" PMx_abs="4.387815" NOx_abs="109.003404" fuel_abs="88912.951427" electricity_abs="0"/>
    </tripinfo>
    <tripinfo id="124" depart="62.00" departLane="230236389#0_0" departPos="5.10" departSpeed="0.00" departDelay="0.00" arrival="157.00" arrivalLane="-645738903#1_0" arrivalPos="204.75" arrivalSpeed="12.14" duration="95.00" routeLength="1066.23" waitingTime="0.00" waitingCount="0" stopTime="0.00" timeLoss="11.72" rerouteNo="0" devices="tripinfo_124 emissions_124 fcd_124" vType="DEFAULT_VEHTYPE" speedFactor="0.94" vaporized="">
        <emissions CO_abs="3375.376575" CO2_abs="265462.248280" HC_abs="21.467264" PMx_abs="4.168358" NOx_abs="104.343731" fuel_abs="84670.459696" electricity_abs="0"/>
    </tripinfo>
    <tripinfo id="125" depart="63.00" departLane="-677559366_0" departPos="5.10" departSpeed="0.00" departDelay="0.50" arrival="157.00" arrivalLane="644802476#5_0" arrivalPos="23.64" arrivalSpeed="12.58" duration="94.00" routeLength="1118.04" waitingTime="0.00" waitingCount="0" stopTime="0.00" timeLoss="17.46" rerouteNo="0" devices="tripinfo_125 emissions_125 fcd_125" vType="DEFAULT_VEHTYPE" speedFactor="1.10" vaporized="">
        <emissions CO_abs="4343.072842" CO2_abs="320523.491126" HC_abs="27.017434" PMx_abs="5.553686" NOx_abs="128.683125" fuel_abs="102232.085118" electricity_abs="0"/>
    </tripinfo>
    <tripinfo id="116" depart="58.00" departLane="230142853#12_0" departPos="5.10" departSpeed="0.00" departDelay="0.00" arrival="158.00" arrivalLane="460144874#11_0" arrivalPos="4.74" arrivalSpeed="5.15" duration="100.00" routeLength="955.12" waitingTime="10.00" waitingCount="1" stopTime="0.00" timeLoss="34.06" rerouteNo="0" devices="tripinfo_116 emissions_116 fcd_116" vType="DEFAULT_VEHTYPE" speedFactor="1.10" vaporized="">
        <emissions CO_abs="6277.965275" CO2_abs="329623.701017" HC_abs="36.119165" PMx_abs="6.163032" NOx_abs="136.408693" fuel_abs="105135.202668" electricity_abs="0"/>
    </tripinfo>
    <tripinfo id="205" depart="103.00" departLane="644802476#13_0" departPos="5.10" departSpeed="0.00" departDelay="0.50" arrival="160.00" arrivalLane="644802476#2_0" arrivalPos="0.20" arrivalSpeed="12.77" duration="57.00" routeLength="582.11" waitingTime="0.00" waitingCount="0" stopTime="0.00" timeLoss="11.24" rerouteNo="0" devices="tripinfo_205 emissions_205 fcd_205" vType="DEFAULT_VEHTYPE" speedFactor="0.95" vaporized="">
        <emissions CO_abs="2494.201368" CO2_abs="170642.712805" HC_abs="15.170740" PMx_abs="2.656909" NOx_abs="67.013548" fuel_abs="54427.528904" electricity_abs="0"/>
    </tripinfo>
    <tripinfo id="166" depart="83.00" departLane="460332826#1_0" departPos="5.10" departSpeed="0.00" departDelay="0.00" arrival="163.00" arrivalLane="-230143098#7_0" arrivalPos="60.52" arrivalSpeed="12.55" duration="80.00" routeLength="754.84" waitingTime="0.00" waitingCount="0" stopTime="0.00" timeLoss="12.35" rerouteNo="0" devices="tripinfo_166 emissions_166 fcd_166" vType="DEFAULT_VEHTYPE" speedFactor="0.99" vaporized="">
        <emissions CO_abs="3941.819281" CO2_abs="221450.443643" HC_abs="22.988228" PMx_abs="3.793968" NOx_abs="90.000640" fuel_abs="70632.953781" electricity_abs="0"/>
    </tripinfo>
    <tripinfo id="119" depart="60.00" departLane="230142853#1_0" departPos="5.10" departSpeed="0.00" departDelay="0.50" arrival="164.00" arrivalLane="230660083#0_0" arrivalPos="0.20" arrivalSpeed="4.86" duration="104.00" routeLength="1048.67" waitingTime="0.00" waitingCount="0" stopTime="0.00" timeLoss="19.18" rerouteNo="0" devices="tripinfo_119 emissions_119 fcd_119" vType="DEFAULT_VEHTYPE" speedFactor="0.92" vaporized="">
        <emissions CO_abs="4382.098987" CO2_abs="285134.693949" HC_abs="26.468712" PMx_abs="4.705070" NOx_abs="114.219239" fuel_abs="90945.250108" electricity_abs="0"/>
    </tripinfo>
    <tripinfo id="81" depart="41.00" departLane="-460165834#2_0" departPos="5.10" departSpeed="0.00" departDelay="0.50" arrival="167.00" arrivalLane="683100028#0_0" arrivalPos="0.20" arrivalSpeed="5.33" duration="126.00" routeLength="1306.79" waitingTime="0.00" waitingCount="0" stopTime="0.00" timeLoss="13.58" rerouteNo="0" devices="tripinfo_81 emissions_81 fcd_81" vType="DEFAULT_VEHTYPE" speedFactor="1.01" vaporized="">
        <emissions CO_abs="4023.789290" CO2_abs="311154.492507" HC_abs="25.299078" PMx_abs="4.426835" NOx_abs="119.326571" fuel_abs="99244.771551" electricity_abs="0"/>
    </tripinfo>
    <tripinfo id="43" depart="22.00" departLane="896560492_0" departPos="0.77" departSpeed="0.00" departDelay="0.50" arrival="169.00" arrivalLane="230139342#5_0" arrivalPos="0.20" arrivalSpeed="13.19" duration="147.00" routeLength="1733.96" waitingTime="0.00" waitingCount="0" stopTime="0.00" timeLoss="17.75" rerouteNo="0" devices="tripinfo_43 emissions_43 fcd_43" vType="DEFAULT_VEHTYPE" speedFactor="0.96" vaporized="">
        <emissions CO_abs="5092.802732" CO2_abs="429760.210686" HC_abs="32.576978" PMx_abs="6.586016" NOx_abs="166.670753" fuel_abs="137074.057296" electricity_abs="0"/>
    </tripinfo>
    <tripinfo id="267" depart="134.00" departLane="231348359#1_0" departPos="5.10" departSpeed="0.00" departDelay="0.50" arrival="169.00" arrivalLane="646392733#15_0" arrivalPos="14.87" arrivalSpeed="15.17" duration="35.00" routeLength="344.24" waitingTime="0.00" waitingCount="0" stopTime="0.00" timeLoss="11.96" rerouteNo="0" devices="tripinfo_267 emissions_267 fcd_267" vType="DEFAULT_VEHTYPE" speedFactor="1.13" vaporized="">
        <emissions CO_abs="2714.990615" CO2_abs="156171.950825" HC_abs="16.005724" PMx_abs="3.056855" NOx_abs="65.902378" fuel_abs="49811.513745" electricity_abs="0"/>
    </tripinfo>
    <tripinfo id="189" depart="95.00" departLane="-675885366#3_0" departPos="0.20" departSpeed="0.00" departDelay="0.50" arrival="170.00" arrivalLane="680602851#5_0" arrivalPos="4.56" arrivalSpeed="11.42" duration="75.00" routeLength="732.24" waitingTime="0.00" waitingCount="0" stopTime="0.00" timeLoss="13.55" rerouteNo="0" devices="tripinfo_189 emissions_189 fcd_189" vType="DEFAULT_VEHTYPE" speedFactor="0.94" vaporized="">
        <emissions CO_abs="3471.946229" CO2_abs="216358.621695" HC_abs="20.736470" PMx_abs="3.538951" NOx_abs="86.613837" fuel_abs="69008.867012" electricity_abs="0"/>
    </tripinfo>
    <tripinfo id="67" depart="34.00" departLane="-230142855#3_0" departPos="0.20" departSpeed="0.00" departDelay="0.50" arrival="173.00" arrivalLane="229639795#2_0" arrivalPos="84.82" arrivalSpeed="20.52" duration="139.00" routeLength="1377.90" waitingTime="16.00" waitingCount="1" stopTime="0.00" timeLoss="43.38" rerouteNo="0" devices="tripinfo_67 emissions_67 fcd_67" vType="DEFAULT_VEHTYPE" speedFactor="0.94" vaporized="">
        <emissions CO_abs="9488.089087" CO2_abs="491217.351684" HC_abs="54.368817" PMx_abs="9.157467" NOx_abs="201.287161" fuel_abs="156676.555160" electricity_abs="0"/>
    </tripinfo>
    <tripinfo id="240" depart="120.00" departLane="-680896610_0" departPos="5.10" departSpeed="0.00" departDelay="0.00" arrival="174.00" arrivalLane="-1214454991#0_0" arrivalPos="109.99" arrivalSpeed="12.15" duration="54.00" routeLength="556.57" waitingTime="0.00" waitingCount="0" stopTime="0.00" timeLoss="10.72" rerouteNo="0" devices="tripinfo_240 emissions_240 fcd_240" vType="DEFAULT_VEHTYPE" speedFactor="0.96" vaporized="">
        <emissions CO_abs="2926.297213" CO2_abs="193015.436290" HC_abs="17.625335" PMx_abs="3.249353" NOx_abs="77.807824" fuel_abs="61563.186245" electricity_abs="0"/>
    </tripinfo>
    <tripinfo id="48" depart="24.00" departLane="883918056#1_0" departPos="0.20" departSpeed="0.00" departDelay="0.00" arrival="175.00" arrivalLane="230140938#13_0" arrivalPos="32.91" arrivalSpeed="13.66" duration="151.00" routeLength="1836.26" waitingTime="0.00" waitingCount="0" stopTime="0.00" timeLoss="30.70" rerouteNo="0" devices="tripinfo_48 emissions_48 fcd_48" vType="DEFAULT_VEHTYPE" speedFactor="1.09" vaporized="">
        <emissions CO_abs="5028.779764" CO2_abs="435053.435843" HC_abs="32.527579" PMx_abs="6.779045" NOx_abs="169.065272" fuel_abs="138762.145199" electricity_abs="0"/>
    </tripinfo>
    <tripinfo id="69" depart="35.00" departLane="460151092#1_0" departPos="5.10" departSpeed="0.00" departDelay="0.50" arrival="177.00" arrivalLane="-230145712#2_0" arrivalPos="43.15" arrivalSpeed="12.03" duration="142.00" routeLength="1472.13" waitingTime="0.00" waitingCount="0" stopTime="0.00" timeLoss="20.69" rerouteNo="0" devices="tripinfo_69 emissions_69 fcd_69" vType="DEFAULT_VEHTYPE" speedFactor="0.91" vaporized="">
        <emissions CO_abs="5124.333389" CO2_abs="369847.821295" HC_abs="31.650048" PMx_abs="5.715305" NOx_abs="145.251841" fuel_abs="117965.067839" electricity_abs="0"/>
    </tripinfo>
    <tripinfo id="228" depart="114.00" departLane="460151092#1_0" departPos="5.10" departSpeed="0.00" departDelay="0.00" arrival="179.00" arrivalLane="230140871#0_0" arrivalPos="54.42" arrivalSpeed="8.13" duration="65.00" routeLength="620.01" waitingTime="0.00" waitingCount="0" stopTime="0.00" timeLoss="14.80" rerouteNo="0" devices="tripinfo_228 emissions_228 fcd_228" vType="DEFAULT_VEHTYPE" speedFactor="1.06" vaporized="">
        <emissions CO_abs="4114.299088" CO2_abs="244921.883278" HC_abs="24.485241" PMx_abs="4.579407" NOx_abs="102.166329" fuel_abs="78118.723491" electricity_abs="0"/>
    </tripinfo>
    <tripinfo id="99" depart="50.00" departLane="896560497#2_0" departPos="0.99" departSpeed="0.00" departDelay="0.50" arrival="180.00" arrivalLane="680059237_0" arrivalPos="102.45" arrivalSpeed="13.81" duration="130.00" routeLength="1660.21" waitingTime="3.00" waitingCount="1" stopTime="0.00" timeLoss="23.30" rerouteNo="0" devices="tripinfo_99 emissions_99 fcd_99" vType="DEFAULT_VEHTYPE" speedFactor="1.01" vaporized="">
        <emissions CO_abs="6792.288847" CO2_abs="457592.037508" HC_abs="41.160121" PMx_abs="8.106552" NOx_abs="181.779419" fuel_abs="145950.940835" electricity_abs="0"/>
    </tripinfo>
    <tripinfo id="55" depart="28.00" departLane="677682989_0" departPos="5.10" departSpeed="0.00" departDelay="0.50" arrival="181.00" arrivalLane="-460323599_0" arrivalPos="72.93" arrivalSpeed="5.17" duration="153.00" routeLength="1712.07" waitingTime="0.00" waitingCount="0" stopTime="0.00" timeLoss="37.14" rerouteNo="0" devices="tripinfo_55 emissions_55 fcd_55" vType="DEFAULT_VEHTYPE" speedFactor="1.02" vaporized="">
        <emissions CO_abs="8749.860957" CO2_abs="557264.583441" HC_abs="52.707882" PMx_abs="10.325687" NOx_abs="228.400225" fuel_abs="177741.488326" electricity_abs="0"/>
    </tripinfo>
    <tripinfo id="40" depart="20.00" departLane="230139354#4_0" departPos="5.10" departSpeed="0.00" departDelay="0.00" arrival="182.00" arrivalLane="-460313710#0_0" arrivalPos="0.20" arrivalSpeed="8.31" duration="162.00" routeLength="1951.71" waitingTime="0.00" waitingCount="0" stopTime="0.00" timeLoss="29.26" rerouteNo="0" devices="tripinfo_40 emissions_40 fcd_40" vType="DEFAULT_VEHTYPE" speedFactor="1.10" vaporized="">
        <emissions CO_abs="8467.074235" CO2_abs="593459.663787" HC_abs="52.341391" PMx_abs="10.730971" NOx_abs="241.274581" fuel_abs="189285.843574" electricity_abs="0"/>
    </tripinfo>
    <tripinfo id="155" depart="78.00" departLane="680602856#0_0" departPos="0.20" departSpeed="0.00" departDelay="0.50" arrival="182.00" arrivalLane="-36507554#1_0" arrivalPos="53.27" arrivalSpeed="13.37" duration="104.00" routeLength="1099.68" waitingTime="1.00" waitingCount="1" stopTime="0.00" timeLoss="22.25" rerouteNo="0" devices="tripinfo_155 emissions_155 fcd_155" vType="DEFAULT_VEHTYPE" speedFactor="1.00" vaporized="">
        <emissions CO_abs="4990.402689" CO2_abs="331308.945575" HC_abs="30.058988" PMx_abs="5.622172" NOx_abs="132.889845" fuel_abs="105672.542403" electricity_abs="0"/>
    </tripinfo>